nqpoint: 404    
npath: 4      
segment_nqpoint:
- 101
- 101
- 101
- 101
labels:
- [ '$\Gamma$', 'H' ]
- [ 'H', 'P' ]
- [ 'P', '$\Gamma$' ]
- [ '$\Gamma$', 'N' ]
reciprocal_lattice:
- [   0.32389449,   0.11451400,   0.19834408 ] # a*
- [  -0.00000000,   0.34354199,   0.19834408 ] # b*
- [  -0.00000000,  -0.00000001,   0.39668813 ] # c*
natom: 1      
lattice:
- [     3.087425137546465,     0.000000018778245,     0.000000032498971 ] # a
- [    -1.029141760342892,     2.910852317999435,     0.000000032504891 ] # b
- [    -1.029141760364045,    -1.455426269796950,     2.520871990039782 ] # c
points:
- symbol: Zr # 1
  coordinates: [  0.000000000000000,  0.000000000000000,  0.000000000000000 ]
  mass: 91.224000

phonon:
- q-position: [    0.0000000,    0.0000000,    0.0000000 ]
  distance:    0.0000000
  band:
  - # 1
    frequency:   -0.0000000559
    eigenvector:
    - # atom 1
      - [ -0.01408824381884,  0.00000000000000 ]
      - [  0.99990059714852,  0.00000000000000 ]
      - [  0.00056321233429,  0.00000000000000 ]
  - # 2
    frequency:    0.0000000243
    eigenvector:
    - # atom 1
      - [ -0.02170486700625,  0.00000000000000 ]
      - [ -0.00086894927544,  0.00000000000000 ]
      - [  0.99976404400008,  0.00000000000000 ]
  - # 3
    frequency:    0.0000000863
    eigenvector:
    - # atom 1
      - [ -0.99966515400625, -0.00000000000000 ]
      - [ -0.01407269516437,  0.00000000000000 ]
      - [ -0.02171495144984,  0.00000000000000 ]

- q-position: [   -0.0050000,    0.0050000,    0.0050000 ]
  distance:    0.0028050
  band:
  - # 1
    frequency:    0.0646745077
    eigenvector:
    - # atom 1
      - [  0.81649649022381, -0.00000000000000 ]
      - [  0.28834919235484,  0.00000005528219 ]
      - [  0.50018818930529, -0.00000003191719 ]
  - # 2
    frequency:    0.0646745093
    eigenvector:
    - # atom 1
      - [  0.00030729814984,  0.00000000000000 ]
      - [  0.86613398242869, -0.00014688572808 ]
      - [ -0.49981176585074,  0.00008480451225 ]
  - # 3
    frequency:    0.0957798022
    eigenvector:
    - # atom 1
      - [ -0.57735031568368,  0.00000000000000 ]
      - [  0.40824826536693, -0.00000000000000 ]
      - [  0.70710675771403, -0.00000000000000 ]

- q-position: [   -0.0100000,    0.0100000,    0.0100000 ]
  distance:    0.0056100
  band:
  - # 1
    frequency:    0.1293968091
    eigenvector:
    - # atom 1
      - [  0.81649648771984, -0.00000000000000 ]
      - [  0.28834223301079, -0.00000000832087 ]
      - [  0.50019220526065,  0.00000000480406 ]
  - # 2
    frequency:    0.1293968123
    eigenvector:
    - # atom 1
      - [  0.00031385866089,  0.00000000000000 ]
      - [  0.86613631144912,  0.00002164657100 ]
      - [ -0.49980775389873, -0.00001249765324 ]
  - # 3
    frequency:    0.1913759707
    eigenvector:
    - # atom 1
      - [ -0.57735031569568,  0.00000000000000 ]
      - [  0.40824826537671, -0.00000000000000 ]
      - [  0.70710675769858, -0.00000000000000 ]

- q-position: [   -0.0150000,    0.0150000,    0.0150000 ]
  distance:    0.0084150
  band:
  - # 1
    frequency:    0.1942140055
    eigenvector:
    - # atom 1
      - [  0.81649648743194, -0.00000000000000 ]
      - [  0.28834147908300, -0.00000001493867 ]
      - [  0.50019264034123,  0.00000000862484 ]
  - # 2
    frequency:    0.1942140103
    eigenvector:
    - # atom 1
      - [  0.00031456940452,  0.00000000000000 ]
      - [  0.86613656183134,  0.00003877481257 ]
      - [ -0.49980731817413, -0.00002238664784 ]
  - # 3
    frequency:    0.2866060709
    eigenvector:
    - # atom 1
      - [ -0.57735031571602,  0.00000000000000 ]
      - [  0.40824826539218,  0.00000000000000 ]
      - [  0.70710675767305,  0.00000000000000 ]

- q-position: [   -0.0200000,    0.0200000,    0.0200000 ]
  distance:    0.0112200
  band:
  - # 1
    frequency:    0.2591718250
    eigenvector:
    - # atom 1
      - [  0.81649648740578, -0.00000000000000 ]
      - [  0.28834146293617, -0.00000000522366 ]
      - [  0.50019264969195,  0.00000000301588 ]
  - # 2
    frequency:    0.2591718313
    eigenvector:
    - # atom 1
      - [  0.00031458466052,  0.00000000000000 ]
      - [  0.86613656795822,  0.00001355788765 ]
      - [ -0.49980730930726, -0.00000782764986 ]
  - # 3
    frequency:    0.3812900624
    eigenvector:
    - # atom 1
      - [ -0.57735031574471,  0.00000000000000 ]
      - [  0.40824826541404, -0.00000000000000 ]
      - [  0.70710675763700, -0.00000000000000 ]

- q-position: [   -0.0250000,    0.0250000,    0.0250000 ]
  distance:    0.0140250
  band:
  - # 1
    frequency:    0.3243139636
    eigenvector:
    - # atom 1
      - [  0.81649648723738, -0.00000000000000 ]
      - [  0.28834107186241, -0.00000000361498 ]
      - [  0.50019287540533,  0.00000000208711 ]
  - # 2
    frequency:    0.3243139714
    eigenvector:
    - # atom 1
      - [  0.00031495336626,  0.00000000000000 ]
      - [  0.86613669819062,  0.00000937159214 ]
      - [ -0.49980708351796, -0.00000541069110 ]
  - # 3
    frequency:    0.4752514858
    eigenvector:
    - # atom 1
      - [ -0.57735031578184,  0.00000000000000 ]
      - [  0.40824826544257,  0.00000000000000 ]
      - [  0.70710675759021,  0.00000000000000 ]

- q-position: [   -0.0300000,    0.0300000,    0.0300000 ]
  distance:    0.0168301
  band:
  - # 1
    frequency:    0.3896814601
    eigenvector:
    - # atom 1
      - [  0.81649648710817, -0.00000000000000 ]
      - [  0.28834080560491, -0.00000000417073 ]
      - [  0.50019302910290,  0.00000000240797 ]
  - # 2
    frequency:    0.3896814693
    eigenvector:
    - # atom 1
      - [  0.00031520441998,  0.00000000000000 ]
      - [  0.86613678679553,  0.00001080374804 ]
      - [ -0.49980692977394, -0.00000623754666 ]
  - # 3
    frequency:    0.5683186364
    eigenvector:
    - # atom 1
      - [ -0.57735031582757,  0.00000000000000 ]
      - [  0.40824826547813,  0.00000000000000 ]
      - [  0.70710675753234, -0.00000000000000 ]

- q-position: [   -0.0350000,    0.0350000,    0.0350000 ]
  distance:    0.0196351
  band:
  - # 1
    frequency:    0.4553121131
    eigenvector:
    - # atom 1
      - [  0.81649648706315, -0.00000000000000 ]
      - [  0.28834078794868, -0.00000000599063 ]
      - [  0.50019303935448,  0.00000000345869 ]
  - # 2
    frequency:    0.4553121237
    eigenvector:
    - # atom 1
      - [  0.00031522113154,  0.00000000000000 ]
      - [  0.86613679258149,  0.00001551713136 ]
      - [ -0.49980691957119, -0.00000895881972 ]
  - # 3
    frequency:    0.6603257219
    eigenvector:
    - # atom 1
      - [ -0.57735031588212,  0.00000000000000 ]
      - [  0.40824826552111, -0.00000000000000 ]
      - [  0.70710675746299,  0.00000000000000 ]

- q-position: [   -0.0400000,    0.0400000,    0.0400000 ]
  distance:    0.0224401
  band:
  - # 1
    frequency:    0.5212399498
    eigenvector:
    - # atom 1
      - [  0.81649648693025, -0.00000000000000 ]
      - [  0.28834054657199, -0.00000000401852 ]
      - [  0.50019317871511,  0.00000000232009 ]
  - # 2
    frequency:    0.5212399617
    eigenvector:
    - # atom 1
      - [  0.00031544875330,  0.00000000000000 ]
      - [  0.86613687298934,  0.00001040139270 ]
      - [ -0.49980678026222, -0.00000600524671 ]
  - # 3
    frequency:    0.7511139976
    eigenvector:
    - # atom 1
      - [ -0.57735031594574,  0.00000000000000 ]
      - [  0.40824826557210,  0.00000000000000 ]
      - [  0.70710675738160,  0.00000000000000 ]

- q-position: [   -0.0450000,    0.0450000,    0.0450000 ]
  distance:    0.0252451
  band:
  - # 1
    frequency:    0.5874947535
    eigenvector:
    - # atom 1
      - [  0.81649648683265, -0.00000000000000 ]
      - [  0.28834042043566, -0.00000000195389 ]
      - [  0.50019325158674,  0.00000000112808 ]
  - # 2
    frequency:    0.5874947666
    eigenvector:
    - # atom 1
      - [  0.00031556775179,  0.00000000000000 ]
      - [  0.86613691500023,  0.00000505547924 ]
      - [ -0.49980670749481, -0.00000291878222 ]
  - # 3
    frequency:    0.8405328758
    eigenvector:
    - # atom 1
      - [ -0.57735031601873,  0.00000000000000 ]
      - [  0.40824826563173,  0.00000000000000 ]
      - [  0.70710675728758, -0.00000000000000 ]

- q-position: [   -0.0500000,    0.0500000,    0.0500000 ]
  distance:    0.0280501
  band:
  - # 1
    frequency:    0.6541016555
    eigenvector:
    - # atom 1
      - [  0.81649648668324, -0.00000000000000 ]
      - [  0.28834017106836, -0.00000000064895 ]
      - [  0.50019339558035,  0.00000000037467 ]
  - # 2
    frequency:    0.6541016697
    eigenvector:
    - # atom 1
      - [  0.00031580293174,  0.00000000000000 ]
      - [  0.86613699799614,  0.00000167782864 ]
      - [ -0.49980656354934, -0.00000096869479 ]
  - # 3
    frequency:    0.9284410041
    eigenvector:
    - # atom 1
      - [ -0.57735031610144,  0.00000000000000 ]
      - [  0.40824826570078,  0.00000000000000 ]
      - [  0.70710675718018, -0.00000000000000 ]

- q-position: [   -0.0550000,    0.0550000,    0.0550000 ]
  distance:    0.0308551
  band:
  - # 1
    frequency:    0.7210807971
    eigenvector:
    - # atom 1
      - [  0.81649648653214, -0.00000000000000 ]
      - [  0.28833993694923, -0.00000000065946 ]
      - [  0.50019353078661,  0.00000000038074 ]
  - # 2
    frequency:    0.7210808122
    eigenvector:
    - # atom 1
      - [  0.00031602375149,  0.00000000000000 ]
      - [  0.86613707589773,  0.00000170382786 ]
      - [ -0.49980642841049, -0.00000098370545 ]
  - # 3
    frequency:    1.0147073067
    eigenvector:
    - # atom 1
      - [ -0.57735031619429,  0.00000000000000 ]
      - [  0.40824826578021,  0.00000000000000 ]
      - [  0.70710675705851, -0.00000000000000 ]

- q-position: [   -0.0600000,    0.0600000,    0.0600000 ]
  distance:    0.0336601
  band:
  - # 1
    frequency:    0.7884470636
    eigenvector:
    - # atom 1
      - [  0.81649648637825, -0.00000000000000 ]
      - [  0.28833971585497, -0.00000000234527 ]
      - [  0.50019365848904,  0.00000000135404 ]
  - # 2
    frequency:    0.7884470796
    eigenvector:
    - # atom 1
      - [  0.00031623230800,  0.00000000000000 ]
      - [  0.86613714943838,  0.00000605536267 ]
      - [ -0.49980630079162, -0.00000349606518 ]
  - # 3
    frequency:    1.0992119834
    eigenvector:
    - # atom 1
      - [ -0.57735031629775,  0.00000000000000 ]
      - [  0.40824826587111, -0.00000000000000 ]
      - [  0.70710675692156, -0.00000000000000 ]

- q-position: [   -0.0650000,    0.0650000,    0.0650000 ]
  distance:    0.0364651
  band:
  - # 1
    frequency:    0.8562098934
    eigenvector:
    - # atom 1
      - [  0.81649648618340, -0.00000000000000 ]
      - [  0.28833940441614, -0.00000000276607 ]
      - [  0.50019383833781,  0.00000000159699 ]
  - # 2
    frequency:    0.8562099102
    eigenvector:
    - # atom 1
      - [  0.00031652604758,  0.00000000000000 ]
      - [  0.86613725306014,  0.00000713522902 ]
      - [ -0.49980612101575, -0.00000411952629 ]
  - # 3
    frequency:    1.1818474604
    eigenvector:
    - # atom 1
      - [ -0.57735031641234,  0.00000000000000 ]
      - [  0.40824826597484, -0.00000000000000 ]
      - [  0.70710675676811, -0.00000000000000 ]

- q-position: [   -0.0700000,    0.0700000,    0.0700000 ]
  distance:    0.0392701
  band:
  - # 1
    frequency:    0.9243731608
    eigenvector:
    - # atom 1
      - [  0.81649648597265, -0.00000000000000 ]
      - [  0.28833907252577, -0.00000000470693 ]
      - [  0.50019403000165,  0.00000000271755 ]
  - # 2
    frequency:    0.9243731783
    eigenvector:
    - # atom 1
      - [  0.00031683908446,  0.00000000000000 ]
      - [  0.86613736343603,  0.00001212979756 ]
      - [ -0.49980592941352, -0.00000700314171 ]
  - # 3
    frequency:    1.2625192860
    eigenvector:
    - # atom 1
      - [ -0.57735031653867,  0.00000000000000 ]
      - [  0.40824826609299, -0.00000000000000 ]
      - [  0.70710675659674, -0.00000000000000 ]

- q-position: [   -0.0750000,    0.0750000,    0.0750000 ]
  distance:    0.0420751
  band:
  - # 1
    frequency:    0.9929351337
    eigenvector:
    - # atom 1
      - [  0.81649648577745, -0.00000000000000 ]
      - [  0.28833880744583,  0.00000000073418 ]
      - [  0.50019418312671, -0.00000000042388 ]
  - # 2
    frequency:    0.9929351518
    eigenvector:
    - # atom 1
      - [  0.00031708915960,  0.00000000000000 ]
      - [  0.86613745170119, -0.00000189049198 ]
      - [ -0.49980577648750,  0.00000109147603 ]
  - # 3
    frequency:    1.3411469631
    eigenvector:
    - # atom 1
      - [ -0.57735031667745,  0.00000000000000 ]
      - [  0.40824826622745, -0.00000000000000 ]
      - [  0.70710675640580, -0.00000000000000 ]

- q-position: [   -0.0800000,    0.0800000,    0.0800000 ]
  distance:    0.0448801
  band:
  - # 1
    frequency:    1.0618885017
    eigenvector:
    - # atom 1
      - [  0.81649648554193, -0.00000000000000 ]
      - [  0.28833845811989, -0.00000000087126 ]
      - [  0.50019438488123,  0.00000000050302 ]
  - # 2
    frequency:    1.0618885202
    eigenvector:
    - # atom 1
      - [  0.00031741867408,  0.00000000000000 ]
      - [  0.86613756791941,  0.00000224115262 ]
      - [ -0.49980557487621, -0.00000129393004 ]
  - # 3
    frequency:    1.4176647122
    eigenvector:
    - # atom 1
      - [ -0.57735031682944,  0.00000000000000 ]
      - [  0.40824826638049, -0.00000000000000 ]
      - [  0.70710675619334, -0.00000000000000 ]

- q-position: [   -0.0850000,    0.0850000,    0.0850000 ]
  distance:    0.0476851
  band:
  - # 1
    frequency:    1.1312204739
    eigenvector:
    - # atom 1
      - [  0.81649648526889, -0.00000000000000 ]
      - [  0.28833803410183,  0.00000000094833 ]
      - [  0.50019462975310, -0.00000000054752 ]
  - # 2
    frequency:    1.1312204927
    eigenvector:
    - # atom 1
      - [  0.00031781862399,  0.00000000000000 ]
      - [  0.86613770899281, -0.00000243631533 ]
      - [ -0.49980533014775,  0.00000140660728 ]
  - # 3
    frequency:    1.4920221552
    eigenvector:
    - # atom 1
      - [ -0.57735031699555,  0.00000000000000 ]
      - [  0.40824826655487,  0.00000000000000 ]
      - [  0.70710675595703,  0.00000000000000 ]

- q-position: [   -0.0900000,    0.0900000,    0.0900000 ]
  distance:    0.0504902
  band:
  - # 1
    frequency:    1.2009129402
    eigenvector:
    - # atom 1
      - [  0.81649648499740, -0.00000000000000 ]
      - [  0.28833764397034,  0.00000000106728 ]
      - [  0.50019485508801, -0.00000000061619 ]
  - # 2
    frequency:    1.2009129592
    eigenvector:
    - # atom 1
      - [  0.00031818665652,  0.00000000000000 ]
      - [  0.86613783877313, -0.00000273874043 ]
      - [ -0.49980510500860,  0.00000158121249 ]
  - # 3
    frequency:    1.5641849099
    eigenvector:
    - # atom 1
      - [ -0.57735031717679,  0.00000000000000 ]
      - [  0.40824826675387, -0.00000000000000 ]
      - [  0.70710675569416,  0.00000000000000 ]

- q-position: [   -0.0950000,    0.0950000,    0.0950000 ]
  distance:    0.0532952
  band:
  - # 1
    frequency:    1.2709426935
    eigenvector:
    - # atom 1
      - [  0.81649648469800, -0.00000000000000 ]
      - [  0.28833720973195, -0.00000000283736 ]
      - [  0.50019510589350,  0.00000000163815 ]
  - # 2
    frequency:    1.2709427125
    eigenvector:
    - # atom 1
      - [  0.00031859629862,  0.00000000000000 ]
      - [  0.86613798319764,  0.00000727157906 ]
      - [ -0.49980485440642, -0.00000419824804 ]
  - # 3
    frequency:    1.6341350871
    eigenvector:
    - # atom 1
      - [ -0.57735031737431,  0.00000000000000 ]
      - [  0.40824826698155, -0.00000000000000 ]
      - [  0.70710675540144,  0.00000000000000 ]

- q-position: [   -0.1000000,    0.1000000,    0.1000000 ]
  distance:    0.0561002
  band:
  - # 1
    frequency:    1.3412817054
    eigenvector:
    - # atom 1
      - [  0.81649648435429, -0.00000000000000 ]
      - [  0.28833668960113,  0.00000000051698 ]
      - [  0.50019540628334, -0.00000000029848 ]
  - # 2
    frequency:    1.3412817244
    eigenvector:
    - # atom 1
      - [  0.00031908694510,  0.00000000000000 ]
      - [  0.86613815625530, -0.00000132287607 ]
      - [ -0.49980455426081,  0.00000076376284 ]
  - # 3
    frequency:    1.7018716774
    eigenvector:
    - # atom 1
      - [ -0.57735031758943,  0.00000000000000 ]
      - [  0.40824826724283, -0.00000000000000 ]
      - [  0.70710675507494, -0.00000000000000 ]

- q-position: [   -0.1050000,    0.1050000,    0.1050000 ]
  distance:    0.0589052
  band:
  - # 1
    frequency:    1.4118974516
    eigenvector:
    - # atom 1
      - [  0.81649648399896, -0.00000000000000 ]
      - [  0.28833617548909, -0.00000000174030 ]
      - [  0.50019570322191,  0.00000000100476 ]
  - # 2
    frequency:    1.4118974704
    eigenvector:
    - # atom 1
      - [  0.00031957195765,  0.00000000000000 ]
      - [  0.86613832725034,  0.00000444641205 ]
      - [ -0.49980425760029, -0.00000256713714 ]
  - # 3
    frequency:    1.7674108161
    eigenvector:
    - # atom 1
      - [ -0.57735031782367,  0.00000000000000 ]
      - [  0.40824826754382, -0.00000000000000 ]
      - [  0.70710675470990, -0.00000000000000 ]

- q-position: [   -0.1100000,    0.1100000,    0.1100000 ]
  distance:    0.0617102
  band:
  - # 1
    frequency:    1.4827532798
    eigenvector:
    - # atom 1
      - [  0.81649648359710, -0.00000000000000 ]
      - [  0.28833557623313, -0.00000000296730 ]
      - [  0.50019604931655,  0.00000000171317 ]
  - # 2
    frequency:    1.4827532983
    eigenvector:
    - # atom 1
      - [  0.00032013728040,  0.00000000000000 ]
      - [  0.86613852655572,  0.00000756796831 ]
      - [ -0.49980391180105, -0.00000436936846 ]
  - # 3
    frequency:    1.8307859145
    eigenvector:
    - # atom 1
      - [ -0.57735031807881,  0.00000000000000 ]
      - [  0.40824826789212, -0.00000000000000 ]
      - [  0.70710675430050, -0.00000000000000 ]

- q-position: [   -0.1150000,    0.1150000,    0.1150000 ]
  distance:    0.0645152
  band:
  - # 1
    frequency:    1.5538088139
    eigenvector:
    - # atom 1
      - [  0.81649648317507, -0.00000000000000 ]
      - [  0.28833496745865, -0.00000000249246 ]
      - [  0.50019640093003,  0.00000000143902 ]
  - # 2
    frequency:    1.5538088321
    eigenvector:
    - # atom 1
      - [  0.00032071163014,  0.00000000000000 ]
      - [  0.86613872903398,  0.00000634553720 ]
      - [ -0.49980356056932, -0.00000366359755 ]
  - # 3
    frequency:    1.8920476447
    eigenvector:
    - # atom 1
      - [ -0.57735031835688,  0.00000000000000 ]
      - [  0.40824826829732,  0.00000000000000 ]
      - [  0.70710675383951, -0.00000000000000 ]

- q-position: [   -0.1200000,    0.1200000,    0.1200000 ]
  distance:    0.0673202
  band:
  - # 1
    frequency:    1.6250203900
    eigenvector:
    - # atom 1
      - [  0.81649648270320, -0.00000000000000 ]
      - [  0.28833427377222,  0.00000000070992 ]
      - [  0.50019680157070, -0.00000000040987 ]
  - # 2
    frequency:    1.6250204077
    eigenvector:
    - # atom 1
      - [  0.00032136608901,  0.00000000000000 ]
      - [  0.86613895975758, -0.00000180369887 ]
      - [ -0.49980316036371,  0.00000104136601 ]
  - # 3
    frequency:    1.9512637632
    eigenvector:
    - # atom 1
      - [ -0.57735031866030,  0.00000000000000 ]
      - [  0.40824826877165, -0.00000000000000 ]
      - [  0.70710675331791, -0.00000000000000 ]

- q-position: [   -0.1250000,    0.1250000,    0.1250000 ]
  distance:    0.0701252
  band:
  - # 1
    frequency:    1.6963415150
    eigenvector:
    - # atom 1
      - [  0.81649648219059, -0.00000000000000 ]
      - [  0.28833352572713, -0.00000000312477 ]
      - [  0.50019723361106,  0.00000000180409 ]
  - # 2
    frequency:    1.6963415320
    eigenvector:
    - # atom 1
      - [  0.00032207186741,  0.00000000000000 ]
      - [  0.86613920848055,  0.00000792173022 ]
      - [ -0.49980272880280, -0.00000457361302 ]
  - # 3
    frequency:    2.0085187614
    eigenvector:
    - # atom 1
      - [ -0.57735031899195,  0.00000000000000 ]
      - [  0.40824826933093, -0.00000000000000 ]
      - [  0.70710675272422,  0.00000000000000 ]

- q-position: [   -0.1300000,    0.1300000,    0.1300000 ]
  distance:    0.0729302
  band:
  - # 1
    frequency:    1.7677233440
    eigenvector:
    - # atom 1
      - [  0.81649648163203, -0.00000000000000 ]
      - [  0.28833271627817, -0.00000000068162 ]
      - [  0.50019770112043,  0.00000000039353 ]
  - # 2
    frequency:    1.7677233604
    eigenvector:
    - # atom 1
      - [  0.00032283562298,  0.00000000000000 ]
      - [  0.86613947766282,  0.00000172390048 ]
      - [ -0.49980226190682, -0.00000099529440 ]
  - # 3
    frequency:    2.0639133303
    eigenvector:
    - # atom 1
      - [ -0.57735031935531,  0.00000000000000 ]
      - [  0.40824826999592, -0.00000000000000 ]
      - [  0.70710675204361, -0.00000000000000 ]

- q-position: [   -0.1350000,    0.1350000,    0.1350000 ]
  distance:    0.0757352
  band:
  - # 1
    frequency:    1.8391151705
    eigenvector:
    - # atom 1
      - [  0.81649648099016, -0.00000000000000 ]
      - [  0.28833175396313,  0.00000000023359 ]
      - [  0.50019825688144, -0.00000000013486 ]
  - # 2
    frequency:    1.8391151861
    eigenvector:
    - # atom 1
      - [  0.00032374359724,  0.00000000000000 ]
      - [  0.86613979763638, -0.00000058911859 ]
      - [ -0.49980170681984,  0.00000034012778 ]
  - # 3
    frequency:    2.1175636267
    eigenvector:
    - # atom 1
      - [ -0.57735031975463,  0.00000000000000 ]
      - [  0.40824827079439, -0.00000000000000 ]
      - [  0.70710675125657,  0.00000000000000 ]

- q-position: [   -0.1400000,    0.1400000,    0.1400000 ]
  distance:    0.0785402
  band:
  - # 1
    frequency:    1.9104649213
    eigenvector:
    - # atom 1
      - [  0.81649648030432, -0.00000000000000 ]
      - [  0.28833075513911, -0.00000000006235 ]
      - [  0.50019883375671,  0.00000000003600 ]
  - # 2
    frequency:    1.9104649361
    eigenvector:
    - # atom 1
      - [  0.00032468613108,  0.00000000000000 ]
      - [  0.86614012968018,  0.00000015678621 ]
      - [ -0.49980113078752, -0.00000009052056 ]
  - # 3
    frequency:    2.1696003320
    eigenvector:
    - # atom 1
      - [ -0.57735032019527,  0.00000000000000 ]
      - [  0.40824827176424,  0.00000000000000 ]
      - [  0.70710675033684,  0.00000000000000 ]

- q-position: [   -0.1450000,    0.1450000,    0.1450000 ]
  distance:    0.0813452
  band:
  - # 1
    frequency:    1.9817196535
    eigenvector:
    - # atom 1
      - [  0.81649647953123, -0.00000000000000 ]
      - [  0.28832961804197, -0.00000000289814 ]
      - [  0.50019949047643,  0.00000000167324 ]
  - # 2
    frequency:    1.9817196673
    eigenvector:
    - # atom 1
      - [  0.00032575919613,  0.00000000000000 ]
      - [  0.86614050761604,  0.00000726402659 ]
      - [ -0.49980047506702, -0.00000419388772 ]
  - # 3
    frequency:    2.2201674962
    eigenvector:
    - # atom 1
      - [ -0.57735032068412,  0.00000000000000 ]
      - [  0.40824827295854, -0.00000000000000 ]
      - [  0.70710674924817, -0.00000000000000 ]

- q-position: [   -0.1500000,    0.1500000,    0.1500000 ]
  distance:    0.0841503
  band:
  - # 1
    frequency:    2.0528260455
    eigenvector:
    - # atom 1
      - [  0.81649647862735, -0.00000000000000 ]
      - [  0.28832824596197, -0.00000000049642 ]
      - [  0.50020028285641,  0.00000000028661 ]
  - # 2
    frequency:    2.0528260583
    eigenvector:
    - # atom 1
      - [  0.00032705401626,  0.00000000000000 ]
      - [  0.86614096369157,  0.00000123933195 ]
      - [ -0.49979968392254, -0.00000071552864 ]
  - # 3
    frequency:    2.2694211629
    eigenvector:
    - # atom 1
      - [ -0.57735032123037,  0.00000000000000 ]
      - [  0.40824827445367,  0.00000000000000 ]
      - [  0.70710674793895,  0.00000000000000 ]

- q-position: [   -0.1550000,    0.1550000,    0.1550000 ]
  distance:    0.0869553
  band:
  - # 1
    frequency:    2.1237308791
    eigenvector:
    - # atom 1
      - [  0.81649647760160, -0.00000000000000 ]
      - [  0.28832668895136,  0.00000000130511 ]
      - [  0.50020118202831, -0.00000000075351 ]
  - # 2
    frequency:    2.1237308910
    eigenvector:
    - # atom 1
      - [  0.00032852349278,  0.00000000000000 ]
      - [  0.86614148109527, -0.00000324365863 ]
      - [ -0.49979878629742,  0.00000187272721 ]
  - # 3
    frequency:    2.3175277755
    eigenvector:
    - # atom 1
      - [ -0.57735032184670,  0.00000000000000 ]
      - [  0.40824827636367,  0.00000000000000 ]
      - [  0.70710674633297, -0.00000000000000 ]

- q-position: [   -0.1600000,    0.1600000,    0.1600000 ]
  distance:    0.0897603
  band:
  - # 1
    frequency:    2.1943815066
    eigenvector:
    - # atom 1
      - [  0.81649647638647, -0.00000000000000 ]
      - [  0.28832480686535, -0.00000000795720 ]
      - [  0.50020226888183,  0.00000000459409 ]
  - # 2
    frequency:    2.1943815173
    eigenvector:
    - # atom 1
      - [  0.00033029986896,  0.00000000000000 ]
      - [  0.86614210621694,  0.00001967008272 ]
      - [ -0.49979770129943, -0.00001135652782 ]
  - # 3
    frequency:    2.3646623726
    eigenvector:
    - # atom 1
      - [ -0.57735032255163,  0.00000000000000 ]
      - [  0.40824827886622, -0.00000000000000 ]
      - [  0.70710674431255, -0.00000000000000 ]

- q-position: [   -0.1650000,    0.1650000,    0.1650000 ]
  distance:    0.0925653
  band:
  - # 1
    frequency:    2.2647262979
    eigenvector:
    - # atom 1
      - [  0.81649647495021, -0.00000000000000 ]
      - [  0.28832257534200, -0.00000000340566 ]
      - [  0.50020355750638,  0.00000000196626 ]
  - # 2
    frequency:    2.2647263075
    eigenvector:
    - # atom 1
      - [  0.00033240632477,  0.00000000000000 ]
      - [  0.86614284763834,  0.00000836539008 ]
      - [ -0.49979641545101, -0.00000482976039 ]
  - # 3
    frequency:    2.4110065813
    eigenvector:
    - # atom 1
      - [ -0.57735032337388,  0.00000000000000 ]
      - [  0.40824828225373, -0.00000000000000 ]
      - [  0.70710674168541, -0.00000000000000 ]

- q-position: [   -0.1700000,    0.1700000,    0.1700000 ]
  distance:    0.0953703
  band:
  - # 1
    frequency:    2.3347150653
    eigenvector:
    - # atom 1
      - [  0.81649647317586, -0.00000000000000 ]
      - [  0.28831978729362, -0.00000000971435 ]
      - [  0.50020516745267,  0.00000000560858 ]
  - # 2
    frequency:    2.3347150737
    eigenvector:
    - # atom 1
      - [  0.00033503845594,  0.00000000000000 ]
      - [  0.86614377318140,  0.00002367409307 ]
      - [ -0.49979480907773, -0.00001366824472 ]
  - # 3
    frequency:    2.4567464318
    eigenvector:
    - # atom 1
      - [ -0.57735032436175,  0.00000000000000 ]
      - [  0.40824828704306, -0.00000000000000 ]
      - [  0.70710673811370, -0.00000000000000 ]

- q-position: [   -0.1750000,    0.1750000,    0.1750000 ]
  distance:    0.0981753
  band:
  - # 1
    frequency:    2.4042994596
    eigenvector:
    - # atom 1
      - [  0.81649647087710, -0.00000000000000 ]
      - [  0.28831614345857, -0.00000000078896 ]
      - [  0.50020727150494,  0.00000000045551 ]
  - # 2
    frequency:    2.4042994669
    eigenvector:
    - # atom 1
      - [  0.00033847910278,  0.00000000000000 ]
      - [  0.86614498305282,  0.00000190317199 ]
      - [ -0.49979271079067, -0.00000109879695 ]
  - # 3
    frequency:    2.5020700163
    eigenvector:
    - # atom 1
      - [ -0.57735032560581,  0.00000000000000 ]
      - [  0.40824829424013, -0.00000000000000 ]
      - [  0.70710673294269, -0.00000000000000 ]

- q-position: [   -0.1800000,    0.1800000,    0.1800000 ]
  distance:    0.1009803
  band:
  - # 1
    frequency:    2.4734333360
    eigenvector:
    - # atom 1
      - [  0.81649646768729, -0.00000000000000 ]
      - [  0.28831109747793,  0.00000000023543 ]
      - [  0.50021018514744, -0.00000000013593 ]
  - # 2
    frequency:    2.4734333420
    eigenvector:
    - # atom 1
      - [  0.00034324494182,  0.00000000000000 ]
      - [  0.86614665712084, -0.00000056003044 ]
      - [ -0.49978980635953,  0.00000032333376 ]
  - # 3
    frequency:    2.5471650290
    eigenvector:
    - # atom 1
      - [ -0.57735032730317,  0.00000000000000 ]
      - [  0.40824830609466, -0.00000000000000 ]
      - [  0.70710672471259, -0.00000000000000 ]

- q-position: [   -0.1850000,    0.1850000,    0.1850000 ]
  distance:    0.1037853
  band:
  - # 1
    frequency:    2.5420730840
    eigenvector:
    - # atom 1
      - [  0.81649646270104, -0.00000000000000 ]
      - [  0.28830341570650, -0.00000001138399 ]
      - [  0.50021462082655,  0.00000000657255 ]
  - # 2
    frequency:    2.5420730888
    eigenvector:
    - # atom 1
      - [  0.00035050345237,  0.00000000000000 ]
      - [  0.86614920294383,  0.00002651895172 ]
      - [ -0.49978538839128, -0.00001531072691 ]
  - # 3
    frequency:    2.5922162279
    eigenvector:
    - # atom 1
      - [ -0.57735032999386,  0.00000000000000 ]
      - [  0.40824832887408,  0.00000000000000 ]
      - [  0.70710670936395,  0.00000000000000 ]

- q-position: [   -0.1900000,    0.1900000,    0.1900000 ]
  distance:    0.1065903
  band:
  - # 1
    frequency:    2.6101779217
    eigenvector:
    - # atom 1
      - [  0.81649645321207, -0.00000000000000 ]
      - [  0.28829062208049,  0.00000000466233 ]
      - [  0.50022200982419, -0.00000000269180 ]
  - # 2
    frequency:    2.6101779252
    eigenvector:
    - # atom 1
      - [  0.00036260796361,  0.00000000000000 ]
      - [  0.86615343326705, -0.00001049833440 ]
      - [ -0.49977804914603,  0.00000606121861 ]
  - # 3
    frequency:    2.6374028666
    eigenvector:
    - # atom 1
      - [ -0.57735033593787,  0.00000000000000 ]
      - [  0.40824838903532, -0.00000000000000 ]
      - [  0.70710666977656, -0.00000000000000 ]

- q-position: [   -0.1950000,    0.1950000,    0.1950000 ]
  distance:    0.1093953
  band:
  - # 1
    frequency:    2.6777101475