nqpoint: 404    
npath: 4      
segment_nqpoint:
- 101
- 101
- 101
- 101
labels:
- [ '$\Gamma$', 'H' ]
- [ 'H', 'P' ]
- [ 'P', '$\Gamma$' ]
- [ '$\Gamma$', 'N' ]
reciprocal_lattice:
- [   0.32389449,   0.11451400,   0.19834408 ] # a*
- [  -0.00000000,   0.34354199,   0.19834408 ] # b*
- [  -0.00000000,  -0.00000001,   0.39668813 ] # c*
natom: 1      
lattice:
- [     3.087425137546465,     0.000000018778245,     0.000000032498971 ] # a
- [    -1.029141760342892,     2.910852317999435,     0.000000032504891 ] # b
- [    -1.029141760364045,    -1.455426269796950,     2.520871990039782 ] # c
points:
- symbol: Zr # 1
  coordinates: [  0.000000000000000,  0.000000000000000,  0.000000000000000 ]
  mass: 91.224000

phonon:
- q-position: [    0.0000000,    0.0000000,    0.0000000 ]
  distance:    0.0000000
  band:
  - # 1
    frequency:   -0.0000000572
    eigenvector:
    - # atom 1
      - [ -0.99965151911969,  0.00000000000000 ]
      - [  0.02636129757823,  0.00000000000000 ]
      - [ -0.00138647455650,  0.00000000000000 ]
  - # 2
    frequency:    0.0000000457
    eigenvector:
    - # atom 1
      - [ -0.01956229957261,  0.00000000000000 ]
      - [ -0.70451343617941,  0.00000000000000 ]
      - [  0.70942098550727,  0.00000000000000 ]
  - # 3
    frequency:    0.0000000518
    eigenvector:
    - # atom 1
      - [ -0.01772446775322,  0.00000000000000 ]
      - [ -0.70920088848836,  0.00000000000000 ]
      - [ -0.70478361431732,  0.00000000000000 ]

- q-position: [   -0.0050000,    0.0050000,    0.0050000 ]
  distance:    0.0028050
  band:
  - # 1
    frequency:    0.0646745112
    eigenvector:
    - # atom 1
      - [  0.81649648635346, -0.00000000000000 ]
      - [  0.28833845941174,  0.00000004911197 ]
      - [  0.50019438281183, -0.00000002835481 ]
  - # 2
    frequency:    0.0646745128
    eigenvector:
    - # atom 1
      - [  0.00031741597435,  0.00000000000000 ]
      - [  0.86613755875628, -0.00012633186556 ]
      - [ -0.49980556947593,  0.00007293773453 ]
  - # 3
    frequency:    0.0957798212
    eigenvector:
    - # atom 1
      - [ -0.57735031568325,  0.00000000000000 ]
      - [  0.40824826536807, -0.00000000000000 ]
      - [  0.70710675771372, -0.00000000000000 ]

- q-position: [   -0.0100000,    0.0100000,    0.0100000 ]
  distance:    0.0056100
  band:
  - # 1
    frequency:    0.1293968160
    eigenvector:
    - # atom 1
      - [  0.81649648706586, -0.00000000000000 ]
      - [  0.28834043270741,  0.00000000342784 ]
      - [  0.50019324413192, -0.00000000197906 ]
  - # 2
    frequency:    0.1293968192
    eigenvector:
    - # atom 1
      - [  0.00031555578496,  0.00000000000000 ]
      - [  0.86613691100437, -0.00000886948884 ]
      - [ -0.49980671435613,  0.00000512080162 ]
  - # 3
    frequency:    0.1913760085
    eigenvector:
    - # atom 1
      - [ -0.57735031569546,  0.00000000000000 ]
      - [  0.40824826537690, -0.00000000000000 ]
      - [  0.70710675769865, -0.00000000000000 ]

- q-position: [   -0.0150000,    0.0150000,    0.0150000 ]
  distance:    0.0084150
  band:
  - # 1
    frequency:    0.1942140159
    eigenvector:
    - # atom 1
      - [  0.81649648719309, -0.00000000000000 ]
      - [  0.28834082183794,  0.00000001671139 ]
      - [  0.50019301960660, -0.00000000964833 ]
  - # 2
    frequency:    0.1942140207
    eigenvector:
    - # atom 1
      - [  0.00031518898149,  0.00000000000000 ]
      - [  0.86613678041746, -0.00004329082407 ]
      - [ -0.49980693849244,  0.00002499396822 ]
  - # 3
    frequency:    0.2866061275
    eigenvector:
    - # atom 1
      - [ -0.57735031571590,  0.00000000000000 ]
      - [  0.40824826539228, -0.00000000000000 ]
      - [  0.70710675767309, -0.00000000000000 ]

- q-position: [   -0.0200000,    0.0200000,    0.0200000 ]
  distance:    0.0112200
  band:
  - # 1
    frequency:    0.2591718387
    eigenvector:
    - # atom 1
      - [  0.81649648723369, -0.00000000000000 ]
      - [  0.28834098931954,  0.00000001945712 ]
      - [  0.50019292299399, -0.00000001123357 ]
  - # 2
    frequency:    0.2591718450
    eigenvector:
    - # atom 1
      - [  0.00031503113364,  0.00000000000000 ]
      - [  0.86613672426560, -0.00005042888066 ]
      - [ -0.49980703500759,  0.00002911512701 ]
  - # 3
    frequency:    0.3812901376
    eigenvector:
    - # atom 1
      - [ -0.57735031574463,  0.00000000000000 ]
      - [  0.40824826541409, -0.00000000000000 ]
      - [  0.70710675763703, -0.00000000000000 ]

- q-position: [   -0.0250000,    0.0250000,    0.0250000 ]
  distance:    0.0140250
  band:
  - # 1
    frequency:    0.3243139805
    eigenvector:
    - # atom 1
      - [  0.81649648712977, -0.00000000000000 ]
      - [  0.28834077592644,  0.00000000693043 ]
      - [  0.50019304617606, -0.00000000400128 ]
  - # 2
    frequency:    0.3243139883
    eigenvector:
    - # atom 1
      - [  0.00031523234149,  0.00000000000000 ]
      - [  0.86613679657374, -0.00001795078629 ]
      - [ -0.49980691253715,  0.00001036389101 ]
  - # 3
    frequency:    0.4752515793
    eigenvector:
    - # atom 1
      - [ -0.57735031578178,  0.00000000000000 ]
      - [  0.40824826544260,  0.00000000000000 ]
      - [  0.70710675759025, -0.00000000000000 ]

- q-position: [   -0.0300000,    0.0300000,    0.0300000 ]
  distance:    0.0168301
  band:
  - # 1
    frequency:    0.3896814800
    eigenvector:
    - # atom 1
      - [  0.81649648709670, -0.00000000000000 ]
      - [  0.28834077400128,  0.00000000557536 ]
      - [  0.50019304733982, -0.00000000321894 ]
  - # 2
    frequency:    0.3896814892
    eigenvector:
    - # atom 1
      - [  0.00031523421233,  0.00000000000000 ]
      - [  0.86613679726351, -0.00001444089888 ]
      - [ -0.49980691149228,  0.00000833745662 ]
  - # 3
    frequency:    0.5683187480
    eigenvector:
    - # atom 1
      - [ -0.57735031582752,  0.00000000000000 ]
      - [  0.40824826547814, -0.00000000000000 ]
      - [  0.70710675753237, -0.00000000000000 ]

- q-position: [   -0.0350000,    0.0350000,    0.0350000 ]
  distance:    0.0196351
  band:
  - # 1
    frequency:    0.4553121358
    eigenvector:
    - # atom 1
      - [  0.81649648697892, -0.00000000000000 ]
      - [  0.28834055654546,  0.00000000394185 ]
      - [  0.50019317288636, -0.00000000227583 ]
  - # 2
    frequency:    0.4553121464
    eigenvector:
    - # atom 1
      - [  0.00031543927245,  0.00000000000000 ]
      - [  0.86613686969551, -0.00001020324428 ]
      - [ -0.49980678598167,  0.00000589084567 ]
  - # 3
    frequency:    0.6603258513
    eigenvector:
    - # atom 1
      - [ -0.57735031588208,  0.00000000000000 ]
      - [  0.40824826552113, -0.00000000000000 ]
      - [  0.70710675746300, -0.00000000000000 ]

- q-position: [   -0.0400000,    0.0400000,    0.0400000 ]
  distance:    0.0224401
  band:
  - # 1
    frequency:    0.5212399752
    eigenvector:
    - # atom 1
      - [  0.81649648688228, -0.00000000000000 ]
      - [  0.28834041481356,  0.00000000113424 ]
      - [  0.50019325474665, -0.00000000065485 ]
  - # 2
    frequency:    0.5212399870
    eigenvector:
    - # atom 1
      - [  0.00031557296031,  0.00000000000000 ]
      - [  0.86613691690973, -0.00000293467542 ]
      - [ -0.49980670420507,  0.00000169433560 ]
  - # 3
    frequency:    0.7511141443
    eigenvector:
    - # atom 1
      - [ -0.57735031594571,  0.00000000000000 ]
      - [  0.40824826557212, -0.00000000000000 ]
      - [  0.70710675738162, -0.00000000000000 ]

- q-position: [   -0.0450000,    0.0450000,    0.0450000 ]
  distance:    0.0252451
  band:
  - # 1
    frequency:    0.5874947813
    eigenvector:
    - # atom 1
      - [  0.81649648678940, -0.00000000000000 ]
      - [  0.28834030167432,  0.00000000390633 ]
      - [  0.50019332011826, -0.00000000225532 ]
  - # 2
    frequency:    0.5874947943
    eigenvector:
    - # atom 1
      - [  0.00031567970662,  0.00000000000000 ]
      - [  0.86613695449216, -0.00001010359955 ]
      - [ -0.49980663888474,  0.00000583331576 ]
  - # 3
    frequency:    0.8405330395
    eigenvector:
    - # atom 1
      - [ -0.57735031601870,  0.00000000000000 ]
      - [  0.40824826563174, -0.00000000000000 ]
      - [  0.70710675728760, -0.00000000000000 ]

- q-position: [   -0.0500000,    0.0500000,    0.0500000 ]
  distance:    0.0280501
  band:
  - # 1
    frequency:    0.6541016854
    eigenvector:
    - # atom 1
      - [  0.81649648665554, -0.00000000000000 ]
      - [  0.28834009505153,  0.00000000717676 ]
      - [  0.50019343944602, -0.00000000414350 ]
  - # 2
    frequency:    0.6541016996
    eigenvector:
    - # atom 1
      - [  0.00031587459191,  0.00000000000000 ]
      - [  0.86613702310537, -0.00001855102544 ]
      - [ -0.49980651953587,  0.00001071043924 ]
  - # 3
    frequency:    0.9284411844
    eigenvector:
    - # atom 1
      - [ -0.57735031610141,  0.00000000000000 ]
      - [  0.40824826570079,  0.00000000000000 ]
      - [  0.70710675718020, -0.00000000000000 ]

- q-position: [   -0.0550000,    0.0550000,    0.0550000 ]
  distance:    0.0308551
  band:
  - # 1
    frequency:    0.7210808288
    eigenvector:
    - # atom 1
      - [  0.81649648649538, -0.00000000000000 ]
      - [  0.28833983614309, -0.00000000614771 ]
      - [  0.50019358895699,  0.00000000354938 ]
  - # 2
    frequency:    0.7210808440
    eigenvector:
    - # atom 1
      - [  0.00031611878020,  0.00000000000000 ]
      - [  0.86613710931254,  0.00001587877991 ]
      - [ -0.49980637011191, -0.00000916761761 ]
  - # 3
    frequency:    1.0147075029
    eigenvector:
    - # atom 1
      - [ -0.57735031619427,  0.00000000000000 ]
      - [  0.40824826578021, -0.00000000000000 ]
      - [  0.70710675705853, -0.00000000000000 ]

- q-position: [   -0.0600000,    0.0600000,    0.0600000 ]
  distance:    0.0336601
  band:
  - # 1
    frequency:    0.7884470970
    eigenvector:
    - # atom 1
      - [  0.81649648633883, -0.00000000000000 ]
      - [  0.28833960785126,  0.00000000646263 ]
      - [  0.50019372081278, -0.00000000373120 ]
  - # 2
    frequency:    0.7884471130
    eigenvector:
    - # atom 1
      - [  0.00031633412176,  0.00000000000000 ]
      - [  0.86613718525367, -0.00001668083932 ]
      - [ -0.49980623833899,  0.00000963068682 ]
  - # 3
    frequency:    1.0992121950
    eigenvector:
    - # atom 1
      - [ -0.57735031629772,  0.00000000000000 ]
      - [  0.40824826587112, -0.00000000000000 ]
      - [  0.70710675692157, -0.00000000000000 ]

- q-position: [   -0.0650000,    0.0650000,    0.0650000 ]
  distance:    0.0364651
  band:
  - # 1
    frequency:    0.8562099280
    eigenvector:
    - # atom 1
      - [  0.81649648617279, -0.00000000000000 ]
      - [  0.28833937532720, -0.00000000083428 ]
      - [  0.50019385512360,  0.00000000048167 ]
  - # 2
    frequency:    0.8562099449
    eigenvector:
    - # atom 1
      - [  0.00031655346932,  0.00000000000000 ]
      - [  0.86613726277064,  0.00000215188597 ]
      - [ -0.49980610423234, -0.00000124239191 ]
  - # 3
    frequency:    1.1818476868
    eigenvector:
    - # atom 1
      - [ -0.57735031641231,  0.00000000000000 ]
      - [  0.40824826597485,  0.00000000000000 ]
      - [  0.70710675676812, -0.00000000000000 ]

- q-position: [   -0.0700000,    0.0700000,    0.0700000 ]
  distance:    0.0392701
  band:
  - # 1
    frequency:    0.9243731965
    eigenvector:
    - # atom 1
      - [  0.81649648595951, -0.00000000000000 ]
      - [  0.28833903654469,  0.00000000288542 ]
      - [  0.50019405076456, -0.00000000166590 ]
  - # 2
    frequency:    0.9243732140
    eigenvector:
    - # atom 1
      - [  0.00031687300332,  0.00000000000000 ]
      - [  0.86613737546723, -0.00000743496310 ]
      - [ -0.49980590866509,  0.00000429257784 ]
  - # 3
    frequency:    1.2625195266
    eigenvector:
    - # atom 1
      - [ -0.57735031653865,  0.00000000000000 ]
      - [  0.40824826609300, -0.00000000000000 ]
      - [  0.70710675659676, -0.00000000000000 ]

- q-position: [   -0.0750000,    0.0750000,    0.0750000 ]
  distance:    0.0420751
  band:
  - # 1
    frequency:    0.9929351701
    eigenvector:
    - # atom 1
      - [  0.81649648576091, -0.00000000000000 ]
      - [  0.28833876221550,  0.00000000063457 ]
      - [  0.50019420922690, -0.00000000036637 ]
  - # 2
    frequency:    0.9929351882
    eigenvector:
    - # atom 1
      - [  0.00031713179762,  0.00000000000000 ]
      - [  0.86613746675897, -0.00000163378123 ]
      - [ -0.49980575036730,  0.00000094326401 ]
  - # 3
    frequency:    1.3411472172
    eigenvector:
    - # atom 1
      - [ -0.57735031667742,  0.00000000000000 ]
      - [  0.40824826622745, -0.00000000000000 ]
      - [  0.70710675640582, -0.00000000000000 ]

- q-position: [   -0.0800000,    0.0800000,    0.0800000 ]
  distance:    0.0448801
  band:
  - # 1
    frequency:    1.0618885386
    eigenvector:
    - # atom 1
      - [  0.81649648550890, -0.00000000000000 ]
      - [  0.28833836795045,  0.00000000742649 ]
      - [  0.50019443691357, -0.00000000428769 ]
  - # 2
    frequency:    1.0618885570
    eigenvector:
    - # atom 1
      - [  0.00031750367569,  0.00000000000000 ]
      - [  0.86613759772928, -0.00001909806477 ]
      - [ -0.49980552268342,  0.00001102627258 ]
  - # 3
    frequency:    1.4176649791
    eigenvector:
    - # atom 1
      - [ -0.57735031682942,  0.00000000000000 ]
      - [  0.40824826638050, -0.00000000000000 ]
      - [  0.70710675619336, -0.00000000000000 ]

- q-position: [   -0.0850000,    0.0850000,    0.0850000 ]
  distance:    0.0476851
  band:
  - # 1
    frequency:    1.1312205109
    eigenvector:
    - # atom 1
      - [  0.81649648525382, -0.00000000000000 ]
      - [  0.28833799296789,  0.00000000272244 ]
      - [  0.50019465348943, -0.00000000157180 ]
  - # 2
    frequency:    1.1312205296
    eigenvector:
    - # atom 1
      - [  0.00031785740039,  0.00000000000000 ]
      - [  0.86613772266152, -0.00000699326321 ]
      - [ -0.49980530637857,  0.00000403756231 ]
  - # 3
    frequency:    1.4920224341
    eigenvector:
    - # atom 1
      - [ -0.57735031699553,  0.00000000000000 ]
      - [  0.40824826655487, -0.00000000000000 ]
      - [  0.70710675595706, -0.00000000000000 ]

- q-position: [   -0.0900000,    0.0900000,    0.0900000 ]
  distance:    0.0504902
  band:
  - # 1
    frequency:    1.2009129770
    eigenvector:
    - # atom 1
      - [  0.81649648497349, -0.00000000000000 ]
      - [  0.28833757882241,  0.00000000394627 ]
      - [  0.50019489268161, -0.00000000227838 ]
  - # 2
    frequency:    1.2009129960
    eigenvector:
    - # atom 1
      - [  0.00031824807061,  0.00000000000000 ]
      - [  0.86613786040605, -0.00001012454630 ]
      - [ -0.49980506735398,  0.00000584540940 ]
  - # 3
    frequency:    1.5641852001
    eigenvector:
    - # atom 1
      - [ -0.57735031717676,  0.00000000000000 ]
      - [  0.40824826675388,  0.00000000000000 ]
      - [  0.70710675569418, -0.00000000000000 ]

- q-position: [   -0.0950000,    0.0950000,    0.0950000 ]
  distance:    0.0532952
  band:
  - # 1
    frequency:    1.2709427298
    eigenvector:
    - # atom 1
      - [  0.81649648467475, -0.00000000000000 ]
      - [  0.28833714646744,  0.00000000454827 ]
      - [  0.50019514240024, -0.00000000262594 ]
  - # 2
    frequency:    1.2709427488
    eigenvector:
    - # atom 1
      - [  0.00031865593721,  0.00000000000000 ]
      - [  0.86613800421050, -0.00001165408665 ]
      - [ -0.49980481784348,  0.00000672848992 ]
  - # 3
    frequency:    1.6341353879
    eigenvector:
    - # atom 1
      - [ -0.57735031737428,  0.00000000000000 ]
      - [  0.40824826698156, -0.00000000000000 ]
      - [  0.70710675540146, -0.00000000000000 ]

- q-position: [   -0.1000000,    0.1000000,    0.1000000 ]
  distance:    0.0561002
  band:
  - # 1
    frequency:    1.3412817410
    eigenvector:
    - # atom 1
      - [  0.81649648433551, -0.00000000000000 ]
      - [  0.28833663858392,  0.00000000254055 ]
      - [  0.50019543572275, -0.00000000146679 ]
  - # 2
    frequency:    1.3412817600
    eigenvector:
    - # atom 1
      - [  0.00031913503830,  0.00000000000000 ]
      - [  0.86613817321551, -0.00000649991523 ]
      - [ -0.49980452478484,  0.00000375272773 ]
  - # 3
    frequency:    1.7018719879
    eigenvector:
    - # atom 1
      - [ -0.57735031758940,  0.00000000000000 ]
      - [  0.40824826724284, -0.00000000000000 ]
      - [  0.70710675507496, -0.00000000000000 ]

- q-position: [   -0.1050000,    0.1050000,    0.1050000 ]
  distance:    0.0589052
  band:
  - # 1
    frequency:    1.4118974863
    eigenvector:
    - # atom 1
      - [  0.81649648398335, -0.00000000000000 ]
      - [  0.28833613310452,  0.00000000207830 ]
      - [  0.50019572767984, -0.00000000119991 ]
  - # 2
    frequency:    1.4118975051
    eigenvector:
    - # atom 1
      - [  0.00031961191297,  0.00000000000000 ]
      - [  0.86613834135524, -0.00000530933692 ]
      - [ -0.49980423312036,  0.00000306534704 ]
  - # 3
    frequency:    1.7674111354
    eigenvector:
    - # atom 1
      - [ -0.57735031782364,  0.00000000000000 ]
      - [  0.40824826754382, -0.00000000000000 ]
      - [  0.70710675470993,  0.00000000000000 ]

- q-position: [   -0.1100000,    0.1100000,    0.1100000 ]
  distance:    0.0617102
  band:
  - # 1
    frequency:    1.4827533132
    eigenvector:
    - # atom 1
      - [  0.81649648358163, -0.00000000000000 ]
      - [  0.28833553433566,  0.00000000106891 ]
      - [  0.50019607349338, -0.00000000061714 ]
  - # 2
    frequency:    1.4827533317
    eigenvector:
    - # atom 1
      - [  0.00032017677652,  0.00000000000000 ]
      - [  0.86613854053207, -0.00000272588533 ]
      - [ -0.49980388762184,  0.00000157379060 ]
  - # 3
    frequency:    1.8307862418
    eigenvector:
    - # atom 1
      - [ -0.57735031807877,  0.00000000000000 ]
      - [  0.40824826789212,  0.00000000000000 ]
      - [  0.70710675430052, -0.00000000000000 ]

- q-position: [   -0.1150000,    0.1150000,    0.1150000 ]
  distance:    0.0645152
  band:
  - # 1
    frequency:    1.5538088459
    eigenvector:
    - # atom 1
      - [  0.81649648315300, -0.00000000000000 ]
      - [  0.28833490778347,  0.00000000014754 ]
      - [  0.50019643536543, -0.00000000008518 ]
  - # 2
    frequency:    1.5538088640
    eigenvector:
    - # atom 1
      - [  0.00032076788504,  0.00000000000000 ]
      - [  0.86613874892282, -0.00000037555078 ]
      - [ -0.49980352612020,  0.00000021682434 ]
  - # 3
    frequency:    1.8920479792
    eigenvector:
    - # atom 1
      - [ -0.57735031835684,  0.00000000000000 ]
      - [  0.40824826829732, -0.00000000000000 ]
      - [  0.70710675383954, -0.00000000000000 ]

- q-position: [   -0.1200000,    0.1200000,    0.1200000 ]
  distance:    0.0673202
  band:
  - # 1
    frequency:    1.6250204204
    eigenvector:
    - # atom 1
      - [  0.81649648268498, -0.00000000000000 ]
      - [  0.28833422461568,  0.00000000641372 ]
      - [  0.50019682993631, -0.00000000370296 ]
  - # 2
    frequency:    1.6250204380
    eigenvector:
    - # atom 1
      - [  0.00032141242818,  0.00000000000000 ]
      - [  0.86613897597023, -0.00001629301788 ]
      - [ -0.49980313188829,  0.00000940677813 ]
  - # 3
    frequency:    1.9512641040
    eigenvector:
    - # atom 1
      - [ -0.57735031866026,  0.00000000000000 ]
      - [  0.40824826877165, -0.00000000000000 ]
      - [  0.70710675331794, -0.00000000000000 ]

- q-position: [   -0.1250000,    0.1250000,    0.1250000 ]
  distance:    0.0701252
  band:
  - # 1
    frequency:    1.6963415435
    eigenvector:
    - # atom 1
      - [  0.81649648217514, -0.00000000000000 ]
      - [  0.28833348410819,  0.00000000254317 ]
      - [  0.50019725762708, -0.00000000146830 ]
  - # 2
    frequency:    1.6963415605
    eigenvector:
    - # atom 1
      - [  0.00032211110093,  0.00000000000000 ]
      - [  0.86613922234753, -0.00000644649714 ]
      - [ -0.49980270477485,  0.00000372188682 ]
  - # 3
    frequency:    2.0085191078
    eigenvector:
    - # atom 1
      - [ -0.57735031899191,  0.00000000000000 ]
      - [  0.40824826933093, -0.00000000000000 ]
      - [  0.70710675272425, -0.00000000000000 ]

- q-position: [   -0.1300000,    0.1300000,    0.1300000 ]
  distance:    0.0729302
  band:
  - # 1
    frequency:    1.7677233705
    eigenvector:
    - # atom 1
      - [  0.81649648160499, -0.00000000000000 ]
      - [  0.28833264364829,  0.00000000421784 ]
      - [  0.50019774303116, -0.00000000243517 ]
  - # 2
    frequency:    1.7677233869
    eigenvector:
    - # atom 1
      - [  0.00032290409006,  0.00000000000000 ]
      - [  0.86613950177693, -0.00001066524656 ]
      - [ -0.49980221992594,  0.00000615758292 ]
  - # 3
    frequency:    2.0639136813
    eigenvector:
    - # atom 1
      - [ -0.57735031935526,  0.00000000000000 ]
      - [  0.40824826999592, -0.00000000000000 ]
      - [  0.70710675204365, -0.00000000000000 ]

- q-position: [   -0.1350000,    0.1350000,    0.1350000 ]
  distance:    0.0757352
  band:
  - # 1
    frequency:    1.8391151948
    eigenvector:
    - # atom 1
      - [  0.81649648097506, -0.00000000000000 ]
      - [  0.28833171348481,  0.00000000535565 ]
      - [  0.50019828023920, -0.00000000309209 ]
  - # 2
    frequency:    1.8391152105
    eigenvector:
    - # atom 1
      - [  0.00032378175552,  0.00000000000000 ]
      - [  0.86613981100623, -0.00001350562043 ]
      - [ -0.49980168338279,  0.00000779747355 ]
  - # 3
    frequency:    2.1175639815
    eigenvector:
    - # atom 1
      - [ -0.57735031975458,  0.00000000000000 ]
      - [  0.40824827079439, -0.00000000000000 ]
      - [  0.70710675125661, -0.00000000000000 ]

- q-position: [   -0.1400000,    0.1400000,    0.1400000 ]
  distance:    0.0785402
  band:
  - # 1
    frequency:    1.9104649434
    eigenvector:
    - # atom 1
      - [  0.81649648027123, -0.00000000000000 ]
      - [  0.28833066678022,  0.00000000492021 ]
      - [  0.50019888474363, -0.00000000284068 ]
  - # 2
    frequency:    1.9104649582
    eigenvector:
    - # atom 1
      - [  0.00032476942560,  0.00000000000000 ]
      - [  0.86614015900579, -0.00001236979971 ]
      - [ -0.49980107970895,  0.00000714170718 ]
  - # 3
    frequency:    2.1696006898
    eigenvector:
    - # atom 1
      - [ -0.57735032019522,  0.00000000000000 ]
      - [  0.40824827176424, -0.00000000000000 ]
      - [  0.70710675033688, -0.00000000000000 ]

- q-position: [   -0.1450000,    0.1450000,    0.1450000 ]
  distance:    0.0813452
  band:
  - # 1
    frequency:    1.9817196732
    eigenvector:
    - # atom 1
      - [  0.81649647949495, -0.00000000000000 ]
      - [  0.28832952150135,  0.00000000178418 ]
      - [  0.50019954618447, -0.00000000103010 ]
  - # 2
    frequency:    1.9817196871
    eigenvector:
    - # atom 1
      - [  0.00032585020334,  0.00000000000000 ]
      - [  0.86614053977238, -0.00000447069340 ]
      - [ -0.49980041932536,  0.00000258115604 ]
  - # 3
    frequency:    2.2201678562
    eigenvector:
    - # atom 1
      - [ -0.57735032068407,  0.00000000000000 ]
      - [  0.40824827295853, -0.00000000000000 ]
      - [  0.70710674924822, -0.00000000000000 ]

- q-position: [   -0.1500000,    0.1500000,    0.1500000 ]
  distance:    0.0841503
  band:
  - # 1
    frequency:    2.0528260628
    eigenvector:
    - # atom 1
      - [  0.81649647860249, -0.00000000000000 ]
      - [  0.28832818001279,  0.00000000295988 ]
      - [  0.50020032091177, -0.00000000170889 ]
  - # 2
    frequency:    2.0528260757
    eigenvector:
    - # atom 1
      - [  0.00032711618540,  0.00000000000000 ]
      - [  0.86614098561466, -0.00000738798911 ]
      - [ -0.49979964581890,  0.00000426545754 ]
  - # 3
    frequency:    2.2694215243
    eigenvector:
    - # atom 1
      - [ -0.57735032123030,  0.00000000000000 ]
      - [  0.40824827445367, -0.00000000000000 ]
      - [  0.70710674793900, -0.00000000000000 ]

- q-position: [   -0.1550000,    0.1550000,    0.1550000 ]
  distance:    0.0869553
  band:
  - # 1
    frequency:    2.1237308940
    eigenvector:
    - # atom 1
      - [  0.81649647756956, -0.00000000000000 ]
      - [  0.28832660434697,  0.00000000482179 ]
      - [  0.50020123084839, -0.00000000278386 ]
  - # 2
    frequency:    2.1237309059
    eigenvector:
    - # atom 1
      - [  0.00032860324783,  0.00000000000000 ]
      - [  0.86614150918213, -0.00001198093364 ]
      - [ -0.49979873739358,  0.00000691719536 ]
  - # 3
    frequency:    2.3175281377
    eigenvector:
    - # atom 1
      - [ -0.57735032184663,  0.00000000000000 ]
      - [  0.40824827636366, -0.00000000000000 ]
      - [  0.70710674633303, -0.00000000000000 ]

- q-position: [   -0.1600000,    0.1600000,    0.1600000 ]
  distance:    0.0897603
  band:
  - # 1
    frequency:    2.1943815189
    eigenvector:
    - # atom 1
      - [  0.81649647636380, -0.00000000000000 ]
      - [  0.28832474727253,  0.00000001172648 ]
      - [  0.50020230326912, -0.00000000677029 ]
  - # 2
    frequency:    2.1943815297
    eigenvector:
    - # atom 1
      - [  0.00033035604607,  0.00000000000000 ]
      - [  0.86614212579289, -0.00002898276074 ]
      - [ -0.49979766673311,  0.00001673320511 ]
  - # 3
    frequency:    2.3646627347
    eigenvector:
    - # atom 1
      - [ -0.57735032255155,  0.00000000000000 ]
      - [  0.40824827886619,  0.00000000000000 ]
      - [  0.70710674431263,  0.00000000000000 ]

- q-position: [   -0.1650000,    0.1650000,    0.1650000 ]
  distance:    0.0925653
  band:
  - # 1
    frequency:    2.2647263078
    eigenvector:
    - # atom 1
      - [  0.81649647493506, -0.00000000000000 ]
      - [  0.28832253569652,  0.00000000819647 ]
      - [  0.50020358038318, -0.00000000473224 ]
  - # 2
    frequency:    2.2647263174
    eigenvector:
    - # atom 1
      - [  0.00033244369780,  0.00000000000000 ]
      - [  0.86614286064205, -0.00002013089874 ]
      - [ -0.49979639244363,  0.00001162258022 ]
  - # 3
    frequency:    2.4110069427
    eigenvector:
    - # atom 1
      - [ -0.57735032337378,  0.00000000000000 ]
      - [  0.40824828225369,  0.00000000000000 ]
      - [  0.70710674168551, -0.00000000000000 ]

- q-position: [   -0.1700000,    0.1700000,    0.1700000 ]
  distance:    0.0953703
  band:
  - # 1
    frequency:    2.3347150727
    eigenvector:
    - # atom 1
      - [  0.81649647315129, -0.00000000000000 ]
      - [  0.28831972357506,  0.00000000643887 ]
      - [  0.50020520422034, -0.00000000371749 ]
  - # 2
    frequency:    2.3347150812
    eigenvector:
    - # atom 1
      - [  0.00033509852196,  0.00000000000000 ]
      - [  0.86614379457335, -0.00001568886656 ]
      - [ -0.49979477238450,  0.00000905797181 ]
  - # 3
    frequency:    2.4567467919
    eigenvector:
    - # atom 1
      - [ -0.57735032436164,  0.00000000000000 ]
      - [  0.40824828704300, -0.00000000000000 ]
      - [  0.70710673811382, -0.00000000000000 ]

- q-position: [   -0.1750000,    0.1750000,    0.1750000 ]
  distance:    0.0981753
  band:
  - # 1
    frequency:    2.4042994646
    eigenvector:
    - # atom 1
      - [  0.81649647083390, -0.00000000000000 ]
      - [  0.28831603265338,  0.00000000283947 ]
      - [  0.50020733544281, -0.00000000163937 ]
  - # 2
    frequency:    2.4042994719
    eigenvector:
    - # atom 1
      - [  0.00033858355632,  0.00000000000000 ]
      - [  0.86614501991192, -0.00000684739070 ]
      - [ -0.49979264678508,  0.00000395334317 ]
  - # 3
    frequency:    2.5020703745
    eigenvector:
    - # atom 1
      - [ -0.57735032560565,  0.00000000000000 ]
      - [  0.40824829424004, -0.00000000000000 ]
      - [  0.70710673294287, -0.00000000000000 ]

- q-position: [   -0.1800000,    0.1800000,    0.1800000 ]
  distance:    0.1009803
  band:
  - # 1
    frequency:    2.4734333386
    eigenvector:
    - # atom 1
      - [  0.81649646760558, -0.00000000000000 ]
      - [  0.28831089097616,  0.00000001013520 ]
      - [  0.50021030430424, -0.00000000585156 ]
  - # 2
    frequency:    2.4734333447
    eigenvector:
    - # atom 1
      - [  0.00034343960614,  0.00000000000000 ]
      - [  0.86614672552341, -0.00002409552499 ]
      - [ -0.49978968690859,  0.00001391155948 ]
  - # 3
    frequency:    2.5471653847
    eigenvector:
    - # atom 1
      - [ -0.57735032730297,  0.00000000000000 ]
      - [  0.40824830609448, -0.00000000000000 ]
      - [  0.70710672471286,  0.00000000000000 ]

- q-position: [   -0.1850000,    0.1850000,    0.1850000 ]
  distance:    0.1037853
  band:
  - # 1
    frequency:    2.5420730844
    eigenvector:
    - # atom 1
      - [  0.81649646265190, -0.00000000000000 ]
      - [  0.28830329372682,  0.00000000720810 ]
      - [  0.50021469121088, -0.00000000416160 ]
  - # 2
    frequency:    2.5420730892
    eigenvector:
    - # atom 1
      - [  0.00035061843885,  0.00000000000000 ]
      - [  0.86614924378907, -0.00001678572697 ]
      - [ -0.49978531808633,  0.00000969124588 ]
  - # 3
    frequency:    2.5922165807
    eigenvector:
    - # atom 1
      - [ -0.57735032999353,  0.00000000000000 ]
      - [  0.40824832887365, -0.00000000000000 ]
      - [  0.70710670936446, -0.00000000000000 ]

- q-position: [   -0.1900000,    0.1900000,    0.1900000 ]
  distance:    0.1065903
  band:
  - # 1
    frequency:    2.6101779199
    eigenvector:
    - # atom 1
      - [  0.81649645315026, -0.00000000000000 ]
      - [  0.28829047335947,  0.00000000485276 ]
      - [  0.50022209563674, -0.00000000280174 ]
  - # 2
    frequency:    2.6101779234
    eigenvector:
    - # atom 1
      - [  0.00036274815687,  0.00000000000000 ]
      - [  0.86615348276285, -0.00001092289218 ]
      - [ -0.49977796325216,  0.00000630633726 ]
  - # 3
    frequency:    2.6374032160
    eigenvector:
    - # atom 1
      - [ -0.57735033593721,  0.00000000000000 ]
      - [  0.40824838903374, -0.00000000000000 ]
      - [  0.70710666977801, -0.00000000000000 ]

- q-position: [   -0.1950000,    0.1950000,    0.1950000 ]
  distance:    0.1093953
  band:
  - # 1
    frequency:    2.6777101436