  64   64
   1   1
     3.308914649864381     0.000000001169286     0.000000001530099
     0.000000001169286     3.308914650690422     0.000000001109741
     0.000000001530099     0.000000001109741     3.308914652784083
   1   2
    -1.503435016758411    -0.000000014645699    -0.000000029062466
    -0.000000015114599    -0.135324733717903    -0.000000003662473
    -0.000000052210838    -0.000000003363252    -0.135324733261684
   1   3
    -0.015369304247287     0.000000000397966    -0.000000000245076
    -0.000000000162061     0.048818449705862     0.000000001062064
    -0.000000001127317     0.000000001169005     0.048818452612522
   1   4
    -1.503435016758411    -0.000000014645699    -0.000000029062466
    -0.000000015114599    -0.135324733717903    -0.000000003662473
    -0.000000052210838    -0.000000003363252    -0.135324733261684
   1   5
    -0.287336986353321     0.429955575319069     0.000000008601999
     0.429955595145630    -1.351422760619109    -0.000000026537740
     0.000000012364241    -0.000000037472722    -0.135324736761808
   1   6
     0.392229086437174     0.202589235540024     0.000000012893805
     0.202589234711119     0.535481318975474     0.000000017289275
     0.000000020351457     0.000000028153753     0.248976871354776
   1   7
    -0.007924103169728    -0.009085006516712     0.000000000008003
    -0.009085007108324    -0.017205698679299    -0.000000000524074
     0.000000000114058    -0.000000000448120    -0.016377339904221
   1   8
    -0.125705819914177     0.131964981090308     0.000000001418004
     0.131964980229741    -0.032392480307912     0.000000001090954
     0.000000002698239     0.000000003173943    -0.004112949698753
   1   9
     0.041686476701598     0.020172265733279     0.000000001011816
     0.020172266323829    -0.008237330733478    -0.000000000349478
     0.000000001498733    -0.000000000577856     0.048818451821627
   1  10
    -0.010464126361634    -0.009983039888849     0.000000000836702
    -0.009983040892555    -0.014665676799553     0.000000000756384
     0.000000000972346     0.000000001054010    -0.016377339779908
   1  11
    -0.020061722466504    -0.106353715245951    -0.000000004099145
    -0.106353716024670    -0.095265161046206    -0.000000005164133
    -0.000000007337384    -0.000000009987719     0.055141712986025
   1  12
    -0.010464126361634    -0.009983039888849     0.000000000836702
    -0.009983040892555    -0.014665676799553     0.000000000756384
     0.000000000972346     0.000000001054010    -0.016377339779908
   1  13
    -0.287336986353321     0.429955575319069     0.000000008601999
     0.429955595145630    -1.351422760619109    -0.000000026537740
     0.000000012364241    -0.000000037472722    -0.135324736761808
   1  14
    -0.125705819914177     0.131964981090308     0.000000001418004
     0.131964980229741    -0.032392480307912     0.000000001090954
     0.000000002698239     0.000000003173943    -0.004112949698753
   1  15
    -0.007924103169728    -0.009085006516712     0.000000000008003
    -0.009085007108324    -0.017205698679299    -0.000000000524074
     0.000000000114058    -0.000000000448120    -0.016377339904221
   1  16
     0.392229086437174     0.202589235540024     0.000000012893805
     0.202589234711119     0.535481318975474     0.000000017289275
     0.000000020351457     0.000000028153753     0.248976871354776
   1  17
    -0.287336997298565    -0.214977808309461     0.372352460000394
    -0.214977809150140    -0.439349275110639     0.526585910443344
     0.372352459982953     0.526585911026803    -1.047398210749892
   1  18
     0.392229086827523    -0.101294618064284     0.175447423400357
    -0.101294618859671     0.320602985009633    -0.124060066496716
     0.175447423540050    -0.124060066177194     0.463855204937897
   1  19
    -0.007924103428243     0.004542503967263    -0.007867846668329
     0.004542502877691    -0.016584428430939     0.000358689625293
    -0.007867846228297     0.000358690091390    -0.016998609898233
   1  20
    -0.125705819590481    -0.065982493448144     0.114285023276433
    -0.065982494295603    -0.011182837013225     0.012245398129896
     0.114285023454698     0.012245398438112    -0.025322593216950
   1  21
     0.392229100743438    -0.101294613121343    -0.175447429344037
    -0.101294614474633     0.320602972010103     0.124060056629828
    -0.175447428639205     0.124060057677866     0.463855205358363
   1  22
    -0.287336975350244    -0.214977779324569    -0.372352457280604
    -0.214977773156184    -0.439349216620239    -0.526585891799184
    -0.372352453214697    -0.526585902634669    -1.047398330625951
   1  23
    -0.125705812643338    -0.065982486693038    -0.114285029566416
    -0.065982490222312    -0.011182836692463    -0.012245398916195
    -0.114285032413745    -0.012245398979187    -0.025322606346022
   1  24
    -0.007924103745864     0.004542503567875     0.007867847772016
     0.004542502553038    -0.016584428180718    -0.000358689185714
     0.007867848314059    -0.000358689215163    -0.016998609242968
   1  25
    -0.018477314536785     0.000811381362975     0.002960793032407
     0.000811380193405    -0.006031218784308    -0.007298313548789
     0.002960792704149    -0.007298312599865    -0.016998608098329
   1  26
     0.017564982085022    -0.015328610663378     0.026549939317792
    -0.015328609917176    -0.154453630004644    -0.111830758220319
     0.026549941558802    -0.111830761323185    -0.025322606603466
   1  27
    -0.018477314760276    -0.002969810694904     0.000777720437928
    -0.002969811514895    -0.020577285955822     0.001099861991797
     0.000777720297387     0.001099862246839    -0.002452540693470
   1  28
    -0.000000007017084     0.000000002582086    -0.000000001503895
     0.000000001662630    -0.000000005856912     0.000000001054127
    -0.000000001292563     0.000000001474945    -0.000000005405967
   1  29
     0.017564981629573    -0.015328612437306    -0.026549938300934
    -0.015328613515137    -0.154453639203569     0.111830750476121
    -0.026549937948494     0.111830751159209    -0.025322593459360
   1  30
    -0.018477312468251     0.000811380574234    -0.002960791343893
     0.000811379813581    -0.006031219874680     0.007298314671835
    -0.002960791034799     0.007298315173382    -0.016998609144227
   1  31
    -0.000000008357752     0.000000002111624     0.000000002745001
     0.000000001514443    -0.000000007076308    -0.000000000108753
     0.000000002919467     0.000000000139345    -0.000000006555847
   1  32
    -0.018477312153280    -0.002969810229461    -0.000777720108601
    -0.002969811056339    -0.020577287708367    -0.001099862086659
    -0.000777719384658    -0.001099861760886    -0.002452541640624
   1  33
     0.041686475992104    -0.010086132237929     0.017469694816289
    -0.010086132693968     0.034554503966892     0.024705880069235
     0.017469695208759     0.024705880448372     0.006026618140000
   1  34
    -0.010464125563428     0.004991521773965    -0.008645566266179
     0.004991521113515    -0.015949424900983    -0.000741172296051
    -0.008645566178777    -0.000741171820413    -0.015093591885426
   1  35
    -0.020061722285745     0.053176860599906    -0.092105018575493
     0.053176859673843     0.017539990662662     0.065128088632908
    -0.092105018035076     0.065128089153253    -0.057663438907552
   1  36
    -0.010464125563428     0.004991521773965    -0.008645566266179
     0.004991521113515    -0.015949424900983    -0.000741172296051
    -0.008645566178777    -0.000741171820413    -0.015093591885426
   1  37
    -0.018477311992486     0.002158431461995     0.002183071759608
     0.002158430600801    -0.007936235974155    -0.008398176185994
     0.002183072585775    -0.008398175747144    -0.015093592857271
   1  38
     0.017564980761475     0.030657228787272     0.000000004390579
     0.030657226867987     0.039242917383376     0.000000005291342
     0.000000006982031     0.000000009223005    -0.219019152574046
   1  39
    -0.018477314220729     0.002158431589767    -0.002183072059471
     0.002158430501555    -0.007936236875207     0.008398175421000
    -0.002183071822646     0.008398176246957    -0.015093590916767
   1  40
    -0.000000007294929    -0.000000000749173     0.000000001244999
    -0.000000001696291    -0.000000007960393     0.000000000817927
     0.000000001417703     0.000000001379934    -0.000000003024747
   1  41
    -0.020061729624507     0.053176858069045     0.092105025392017
     0.053176857975594     0.017539998212973    -0.065128079410831
     0.092105025275532    -0.065128079576350    -0.057663439141581
   1  42
    -0.010464126444494     0.004991521342413     0.008645566841294
     0.004991520754029    -0.015949424523811     0.000741171294510
     0.008645567764816     0.000741172552143    -0.015093590700695
   1  43
     0.041686477944547    -0.010086131054699    -0.017469692775500
    -0.010086131392466     0.034554505526014    -0.024705876779452
    -0.017469692320371    -0.024705877078126     0.006026612496065
   1  44
    -0.010464126444494     0.004991521342413     0.008645566841294
     0.004991520754029    -0.015949424523811     0.000741171294510
     0.008645567764816     0.000741172552143    -0.015093590700695
   1  45
    -0.018477311992486     0.002158431461995     0.002183071759608
     0.002158430600801    -0.007936235974155    -0.008398176185994
     0.002183072585775    -0.008398175747144    -0.015093592857271
   1  46
    -0.000000007294929    -0.000000000749173     0.000000001244999
    -0.000000001696291    -0.000000007960393     0.000000000817927
     0.000000001417703     0.000000001379934    -0.000000003024747
   1  47
    -0.018477314220729     0.002158431589767    -0.002183072059471
     0.002158430501555    -0.007936236875207     0.008398175421000
    -0.002183071822646     0.008398176246957    -0.015093590916767
   1  48
     0.017564980761475     0.030657228787272     0.000000004390579
     0.030657226867987     0.039242917383376     0.000000005291342
     0.000000006982031     0.000000009223005    -0.219019152574046
   1  49
    -0.287336997298565    -0.214977808309461     0.372352460000395
    -0.214977809150140    -0.439349275110639     0.526585910443344
     0.372352459982953     0.526585911026803    -1.047398210749892
   1  50
    -0.125705819590481    -0.065982493448144     0.114285023276433
    -0.065982494295603    -0.011182837013225     0.012245398129896
     0.114285023454698     0.012245398438112    -0.025322593216950
   1  51
    -0.007924103428243     0.004542503967263    -0.007867846668329
     0.004542502877691    -0.016584428430939     0.000358689625293
    -0.007867846228297     0.000358690091390    -0.016998609898233
   1  52
     0.392229086827523    -0.101294618064284     0.175447423400357
    -0.101294618859671     0.320602985009633    -0.124060066496716
     0.175447423540050    -0.124060066177194     0.463855204937897
   1  53
     0.017564981629573    -0.015328612437306    -0.026549938300934
    -0.015328613515137    -0.154453639203569     0.111830750476121
    -0.026549937948494     0.111830751159209    -0.025322593459360
   1  54
    -0.018477312153280    -0.002969810229461    -0.000777720108601
    -0.002969811056339    -0.020577287708367    -0.001099862086659
    -0.000777719384658    -0.001099861760886    -0.002452541640624
   1  55
    -0.000000008357752     0.000000002111624     0.000000002745001
     0.000000001514443    -0.000000007076308    -0.000000000108753
     0.000000002919467     0.000000000139345    -0.000000006555847
   1  56
    -0.018477312468251     0.000811380574234    -0.002960791343893
     0.000811379813581    -0.006031219874680     0.007298314671835
    -0.002960791034799     0.007298315173382    -0.016998609144227
   1  57
    -0.018477314536785     0.000811381362975     0.002960793032407
     0.000811380193405    -0.006031218784308    -0.007298313548789
     0.002960792704149    -0.007298312599865    -0.016998608098329
   1  58
    -0.000000007017084     0.000000002582086    -0.000000001503895
     0.000000001662630    -0.000000005856912     0.000000001054127
    -0.000000001292563     0.000000001474945    -0.000000005405967
   1  59
    -0.018477314760276    -0.002969810694904     0.000777720437928
    -0.002969811514895    -0.020577285955822     0.001099861991797
     0.000777720297387     0.001099862246839    -0.002452540693470
   1  60
     0.017564982085022    -0.015328610663378     0.026549939317792
    -0.015328609917176    -0.154453630004644    -0.111830758220319
     0.026549941558802    -0.111830761323185    -0.025322606603466
   1  61
     0.392229100743438    -0.101294613121343    -0.175447429344038
    -0.101294614474633     0.320602972010103     0.124060056629828
    -0.175447428639205     0.124060057677866     0.463855205358363
   1  62
    -0.007924103745864     0.004542503567875     0.007867847772016
     0.004542502553038    -0.016584428180718    -0.000358689185714
     0.007867848314059    -0.000358689215163    -0.016998609242968
   1  63
    -0.125705812643338    -0.065982486693038    -0.114285029566416
    -0.065982490222312    -0.011182836692463    -0.012245398916195
    -0.114285032413745    -0.012245398979187    -0.025322606346022
   1  64
    -0.287336975350244    -0.214977779324569    -0.372352457280604
    -0.214977773156184    -0.439349216620239    -0.526585891799184
    -0.372352453214697    -0.526585902634669    -1.047398330625951
   2   1
    -1.503435016758411    -0.000000015114599    -0.000000052210838
    -0.000000014645699    -0.135324733717903    -0.000000003363252
    -0.000000029062466    -0.000000003662473    -0.135324733261684
   2   2
     3.308914650694967    -0.000000000198246     0.000000111993868
    -0.000000000198246     3.308914650985271     0.000000158655369
     0.000000111993868     0.000000158655369     3.308914649998621
   2   3
    -1.503435016470322    -0.000000015161860    -0.000000055889259
    -0.000000015242125    -0.135324734398206    -0.000000007869590
    -0.000000055961616    -0.000000008061870    -0.135324733134188
   2   4
    -0.015369303685872    -0.000000000865922    -0.000000002059603
    -0.000000000865922     0.048818450767900     0.000000000781858
    -0.000000002059603     0.000000000781858     0.048818449597084
   2   5
    -0.125705813279751     0.131964975851875     0.000000001837070
     0.131964980019076    -0.032392479288083     0.000000002254504
     0.000000000850785     0.000000001271391    -0.004112952918357
   2   6
    -0.287336998134212     0.429955593557182     0.000000010996253
     0.429955593209535    -1.351422753417293    -0.000000055543969
     0.000000010804682    -0.000000055386558    -0.135324733735777
   2   7
     0.392229087651606     0.202589234114068     0.000000023329235
     0.202589234002734     0.535481319652965     0.000000033186356
     0.000000023221270     0.000000033138372     0.248976868430516
   2   8
    -0.007924103548083    -0.009085006816245    -0.000000001810461
    -0.009085007195890    -0.017205699060021    -0.000000002967931
    -0.000000001932160    -0.000000002760221    -0.016377339807586
   2   9
    -0.010464124003365    -0.009983040613181    -0.000000001854331
    -0.009983040822959    -0.014665676203817    -0.000000001829755
    -0.000000001770411    -0.000000001774326    -0.016377341419042
   2  10
     0.041686476498093     0.020172265476560     0.000000001305786
     0.020172264952977    -0.008237331142930    -0.000000001326213
     0.000000000785095    -0.000000000291253     0.048818449207926
   2  11
    -0.010464125864504    -0.009983040642928    -0.000000002818568
    -0.009983040941854    -0.014665676202968    -0.000000002547554
    -0.000000002483061    -0.000000002206531    -0.016377339292863
   2  12
    -0.020061722116724    -0.106353716283102    -0.000000007629577
    -0.106353716806076    -0.095265161259675    -0.000000010640490
    -0.000000003919688    -0.000000005177331     0.055141709612952
   2  13
     0.392229078930928     0.202589231209081     0.000000021696297
     0.202589237597591     0.535481324235227     0.000000030329544
     0.000000017584385     0.000000024929340     0.248976873500048
   2  14
    -0.287336998141602     0.429955593630103     0.000000010966195
     0.429955593250458    -1.351422753492810    -0.000000055562498
     0.000000010844496    -0.000000055354789    -0.135324733680339
   2  15
    -0.125705818690562     0.131964979596661     0.000000001300328
     0.131964979485328    -0.032392479546957     0.000000002046710
     0.000000001192364     0.000000001998726    -0.004112952682320
   2  16
    -0.007924103540693    -0.009085006889166    -0.000000001780403
    -0.009085007236813    -0.017205698984504    -0.000000002949401
    -0.000000001971975    -0.000000002791990    -0.016377339863024
   2  17
    -0.125705816271442    -0.065982492096796     0.114285018023869
    -0.065982495016233    -0.011182835991805     0.012245394485226
     0.114285021031925     0.012245395556196    -0.025322592632574
   2  18
    -0.287336991359123    -0.214977799802159     0.372352448730887
    -0.214977800112700    -0.439349262626570     0.526585895877832
     0.372352440753946     0.526585884840408    -1.047398193066774
   2  19
     0.392229090402935    -0.101294612291577     0.175447427458202
    -0.101294612835178     0.320602973753596    -0.124060051992306
     0.175447435005348    -0.124060057204210     0.463855211596801
   2  20
    -0.007924103360553     0.004542504532108    -0.007867846803154
     0.004542504362226    -0.016584430011885     0.000358689685061
    -0.007867847180262     0.000358689606470    -0.016998609197212
   2  21
    -0.007924103398488     0.004542504463073     0.007867847189474
     0.004542503390915    -0.016584429239530    -0.000358690436167
     0.007867847338140    -0.000358689777111    -0.016998608152686
   2  22
     0.392229095078188    -0.101294613994930    -0.175447421137417
    -0.101294607742675     0.320602969042268     0.124060061492617
    -0.175447424941471     0.124060071830125     0.463855211955607
   2  23
    -0.287336981539145    -0.214977785475050    -0.372352470103395
    -0.214977785961977    -0.439349243628274    -0.526585925615683
    -0.372352469905512    -0.526585925178729    -1.047398337934970
   2  24
    -0.125705813788630    -0.065982491986442    -0.114285034437214
    -0.065982491688543    -0.011182835081077    -0.012245402364619
    -0.114285035044021    -0.012245401029704    -0.025322610733083
   2  25
    -0.000000006556536     0.000000001302990    -0.000000001572482
     0.000000000613720    -0.000000005267369     0.000000000142555
    -0.000000002190494     0.000000000792446    -0.000000007092372
   2  26
    -0.018477311913593     0.000811380484135     0.002960790562930
     0.000811379984933    -0.006031219767243    -0.007298314460559
     0.002960790663822    -0.007298314729019    -0.016998611085548
   2  27
     0.017564981343668    -0.015328613747039     0.026549937711967
    -0.015328612587237    -0.154453626792065    -0.111830760317066
     0.026549939487226    -0.111830763539777    -0.025322609956312
   2  28
    -0.018477313954011    -0.002969810059447     0.000777717920883
    -0.002969810498606    -0.020577287200632     0.001099859570726
     0.000777717842451     0.001099859692323    -0.002452541128208
   2  29
    -0.018477315158420    -0.002969810522755    -0.000777721092601
    -0.002969811120025    -0.020577287009599    -0.001099864252020
    -0.000777720684029    -0.001099863380521    -0.002452541439330
   2  30
     0.017564983408183    -0.015328613923512    -0.026549939174599
    -0.015328612475446    -0.154453636190421     0.111830746010657
    -0.026549941006633     0.111830749344346    -0.025322593612587
   2  31
    -0.018477315311599     0.000811380185843    -0.002960792170191
     0.000811380266178    -0.006031220840967     0.007298314087048
    -0.002960792279525     0.007298313756158    -0.016998609749196
   2  32
    -0.000000004899492     0.000000000599679     0.000000000540180
     0.000000000346509    -0.000000005879561    -0.000000001805806
     0.000000001180256    -0.000000001522254    -0.000000008472207
   2  33
    -0.010464126169912     0.004991520727816    -0.008645567292934
     0.004991520948300    -0.015949423137792    -0.000741172657825
    -0.008645567389945    -0.000741172642816    -0.015093592088853
   2  34
     0.041686477596065    -0.010086132770506     0.017469693632893
    -0.010086132950445     0.034554503164375     0.024705878402044
     0.017469693063316     0.024705878059665     0.006026616187738
   2  35
    -0.010464125830797     0.004991520814133    -0.008645567319459
     0.004991520564593    -0.015949424123793    -0.000741172080276
    -0.008645567268524    -0.000741171924058    -0.015093591738261
   2  36
    -0.020061722898490     0.053176857327573    -0.092105019260106
     0.053176860493571     0.017539991824583     0.065128087060619
    -0.092105021393145     0.065128084504049    -0.057663442109843
   2  37
    -0.000000004558390    -0.000000001769285    -0.000000001052858
    -0.000000002271410    -0.000000007492466    -0.000000001305556
    -0.000000000662229    -0.000000001143182    -0.000000006269937
   2  38
    -0.018477314540252     0.002158429890996     0.002183070714828
     0.002158429116909    -0.007936234737288    -0.008398176944771
     0.002183070791745    -0.008398177189989    -0.015093593722504
   2  39
     0.017564981427781     0.030657228038303     0.000000001386187
     0.030657227626279     0.039242916610440     0.000000002152024
     0.000000001336355     0.000000002468639    -0.219019149550575
   2  40
    -0.018477314296375     0.002158430601019    -0.002183072077142
     0.002158430330357    -0.007936236637092     0.008398175791344
    -0.002183072188822     0.008398175843840    -0.015093591178182
   2  41
    -0.010464126365948     0.004991520733348     0.008645567456254
     0.004991520925074    -0.015949423799220     0.000741172236110
     0.008645566850216     0.000741171707414    -0.015093590889966
   2  42
    -0.020061725702515     0.053176858195478     0.092105022313079
     0.053176857891076     0.017539994714497    -0.065128082742618
     0.092105022745597    -0.065128081848605    -0.057663441838852
   2  43
    -0.010464125511413     0.004991519367247     0.008645566412451
     0.004991519070823    -0.015949422756361     0.000741171519846
     0.008645566464428     0.000741171311185    -0.015093592470207
   2  44
     0.041686477705157    -0.010086132053030    -0.017469693998787
    -0.010086132356878     0.034554504534312    -0.024705878925622
    -0.017469693564055    -0.024705878031750     0.006026609672680
   2  45
     0.017564982902928     0.030657227354789     0.000000003568944
     0.030657227816991     0.039242917361908     0.000000005234509
     0.000000001564702     0.000000002006428    -0.219019154764379
   2  46
    -0.018477314391827     0.002158430913378     0.002183071404352
     0.002158430250269    -0.007936236118038    -0.008398176380159
     0.002183071292735    -0.008398176327225    -0.015093592265566
   2  47
    -0.000000006373190    -0.000000001749138    -0.000000001364458
    -0.000000002160856    -0.000000007817875    -0.000000001734886
    -0.000000001412016    -0.000000001418267    -0.000000005650213
   2  48
    -0.018477314482086     0.002158429722197    -0.002183072517193
     0.002158429144332    -0.007936235053569     0.008398174808481
    -0.002183072781120     0.008398175332637    -0.015093592468912
   2  49
     0.392229091121220    -0.101294615097178     0.175447426195787
    -0.101294621831518     0.320602982656715    -0.124060062611304
     0.175447429566254    -0.124060057121101     0.463855203490379
   2  50
    -0.287336991431374    -0.214977799663469     0.372352448759822
    -0.214977800026082    -0.439349262696537     0.526585895981421
     0.372352440821452     0.526585884932691    -1.047398192853597
   2  51
    -0.125705816988465    -0.065982493045538     0.114285017119442
    -0.065982495183907    -0.011182835760898     0.012245395413928
     0.114285021180474     0.012245394617048    -0.025322593661442
   2  52
    -0.007924103288302     0.004542504393418    -0.007867846832089
     0.004542504275608    -0.016584429941918     0.000358689581472
    -0.007867847247769     0.000358689514187    -0.016998609410389
   2  53
    -0.018477315195743     0.000811380164392    -0.002960792354023
     0.000811379764066    -0.006031219471294     0.007298313125520
    -0.002960792285807     0.007298313227200    -0.016998608609230
   2  54
     0.017564983723135    -0.015328613946053    -0.026549939315812
    -0.015328612606272    -0.154453636466869     0.111830746083994
    -0.026549940708675     0.111830749756009    -0.025322593666540
   2  55
    -0.018477315274244    -0.002969810501007    -0.000777720908796
    -0.002969810617889    -0.020577288379152    -0.001099863290451
    -0.000777720677721    -0.001099862851677    -0.002452542579115
   2  56
    -0.000000005214444     0.000000000625923     0.000000000679255
     0.000000000477098    -0.000000005602677    -0.000000001878887
     0.000000000882434    -0.000000001933668    -0.000000008418692
   2  57
     0.017564981699895    -0.015328609687428     0.026549940046631
    -0.015328612931786    -0.154453629140104    -0.111830763122266
     0.026549939066686    -0.111830759079931    -0.025322607642325
   2  58
    -0.018477314049525     0.000811380796178     0.002960789891409
     0.000811380357019    -0.006031219347617    -0.007298315573781
     0.002960789812977    -0.007298315452184    -0.016998609550437
   2  59
    -0.000000006912764     0.000000000488021    -0.000000002033850
     0.000000000054873    -0.000000004578075     0.000000000514977
    -0.000000002291530     0.000000000680730    -0.000000007747614
   2  60
    -0.018477311818104    -0.002969810409855     0.000777718570365
    -0.002969810870714    -0.020577287843009     0.001099860555442
     0.000777718693318     0.001099860801028    -0.002452542440822
   2  61
    -0.287336974853105    -0.214977776681039    -0.372352451413178
    -0.214977777547119    -0.439349229392374    -0.526585899782430
    -0.372352458785556    -0.526585910069909    -1.047398317978975
   2  62
     0.392229095228813    -0.101294613802373    -0.175447421181229
    -0.101294608093833     0.320602969307989     0.124060061686617
    -0.175447424911270     0.124060071853812     0.463855211536362
   2  63
    -0.007924103576372     0.004542504676390     0.007867846138235
     0.004542504183640    -0.016584430731089    -0.000358691316806
     0.007867846318334    -0.000358690890483    -0.016998608856695
   2  64
    -0.125705813944788    -0.065982492173103    -0.114285034387348
    -0.065982491330143    -0.011182835344773    -0.012245402561892
    -0.114285035069971    -0.012245401056576    -0.025322610316352
   3   1
    -0.015369304247287    -0.000000000162061    -0.000000001127317
     0.000000000397966     0.048818449705862     0.000000001169005
    -0.000000000245076     0.000000001062064     0.048818452612522
   3   2
    -1.503435016470322    -0.000000015242125    -0.000000055961616
    -0.000000015161860    -0.135324734398206    -0.000000008061870
    -0.000000055889259    -0.000000007869590    -0.135324733134188
   3   3
     3.308914650418182     0.000000000456821     0.000000112402429
     0.000000000456821     3.308914649240544     0.000000158994840
     0.000000112402429     0.000000158994840     3.308914653144370
   3   4
    -1.503435016470322    -0.000000015242125    -0.000000055961616
    -0.000000015161860    -0.135324734398206    -0.000000008061870
    -0.000000055889259    -0.000000007869590    -0.135324733134188
   3   5
    -0.007924101466602    -0.009085006851905    -0.000000000849095
    -0.009085007026141    -0.017205699694865    -0.000000001862379
    -0.000000001169642    -0.000000001776631    -0.016377340268044
   3   6
    -0.125705819623000     0.131964980407775     0.000000001347107
     0.131964980140393    -0.032392480915131     0.000000001463179
     0.000000001227892     0.000000001812870    -0.004112949624689
   3   7
    -0.287336997478560     0.429955593320870     0.000000011285679
     0.429955593289801    -1.351422753793846    -0.000000054813247
     0.000000011250071    -0.000000054668951    -0.135324733647659
   3   8
     0.392229086711777     0.202589234998102     0.000000023345956
     0.202589234698723     0.535481318209274     0.000000032584295
     0.000000023296613     0.000000032984284     0.248976871543585
   3   9
    -0.020061720529237    -0.106353713529218    -0.000000007809522
    -0.106353716675157    -0.095265162768445    -0.000000010563803
    -0.000000005790627    -0.000000007648171     0.055141712489520
   3  10
    -0.010464126076934    -0.009983040497582    -0.000000000726359
    -0.009983040940797    -0.014665677481336    -0.000000000892938
    -0.000000000668297    -0.000000000572253    -0.016377339650593
   3  11
     0.041686476433591     0.020172265905940     0.000000000666418
     0.020172265687279    -0.008237331609300    -0.000000001254478
     0.000000001074282    -0.000000000721173     0.048818452711406
   3  12
    -0.010464126076934    -0.009983040497582    -0.000000000726359
    -0.009983040940797    -0.014665677481336    -0.000000000892938
    -0.000000000668297    -0.000000000572253    -0.016377339650593
   3  13
    -0.007924101466602    -0.009085006851905    -0.000000000849095
    -0.009085007026141    -0.017205699694865    -0.000000001862379
    -0.000000001169642    -0.000000001776631    -0.016377340268044
   3  14
     0.392229086711777     0.202589234998102     0.000000023345956
     0.202589234698723     0.535481318209274     0.000000032584295
     0.000000023296613     0.000000032984284     0.248976871543585
   3  15
    -0.287336997478560     0.429955593320870     0.000000011285679
     0.429955593289801    -1.351422753793847    -0.000000054813247