  64   64
   1   1
     3.308910789647224     0.000000001224177     0.000000001601870
     0.000000001224177     3.308910790512040     0.000000001161809
     0.000000001601870     0.000000001161809     3.308910792703870
   1   2
    -1.503433657054506    -0.000000014610384    -0.000000029174449
    -0.000000015102065    -0.135325006337874    -0.000000003834313
    -0.000000053408338    -0.000000003521082    -0.135325005860138
   1   3
    -0.015369415411451     0.000000000450557    -0.000000000197875
    -0.000000000135760     0.048818649975624     0.000000001111924
    -0.000000001121510     0.000000001223852     0.048818653018602
   1   4
    -1.503433657054506    -0.000000014610384    -0.000000029174449
    -0.000000015102065    -0.135325006337874    -0.000000003834313
    -0.000000053408338    -0.000000003521082    -0.135325005860138
   1   5
    -0.287337077101213     0.429955061473668     0.000000008588703
     0.429955082230374    -1.351421582622825    -0.000000026603726
     0.000000012527420    -0.000000038051707    -0.135325009524544
   1   6
     0.392229327861805     0.202589553454126     0.000000013105705
     0.202589552586386     0.535481785200791     0.000000017544774
     0.000000020913205     0.000000028918921     0.248976888155759
   1   7
    -0.007924095600903    -0.009084962181320     0.000000000012406
    -0.009084962800638    -0.017205743418565    -0.000000000539265
     0.000000000123408    -0.000000000459774    -0.016377364542032
   1   8
    -0.125705747782261     0.131964964040096     0.000000001425150
     0.131964963139205    -0.032392420236350     0.000000001058011
     0.000000002765490     0.000000003238644    -0.004113015785868
   1   9
     0.041686642372789     0.020172363618913     0.000000001039725
     0.020172364237196    -0.008237407275172    -0.000000000310549
     0.000000001549464    -0.000000000549657     0.048818652190610
   1  10
    -0.010464193188890    -0.009983021832804     0.000000000883471
    -0.009983022883559    -0.014665647204287     0.000000000798802
     0.000000001025441     0.000000001110365    -0.016377364411888
   1  11
    -0.020061677141341    -0.106353725438162    -0.000000004085178
    -0.106353726253377    -0.095265122925087    -0.000000005114640
    -0.000000007475358    -0.000000010164550     0.055141765705504
   1  12
    -0.010464193188890    -0.009983021832804     0.000000000883471
    -0.009983022883559    -0.014665647204287     0.000000000798802
     0.000000001025441     0.000000001110365    -0.016377364411888
   1  13
    -0.287337077101213     0.429955061473668     0.000000008588703
     0.429955082230374    -1.351421582622825    -0.000000026603726
     0.000000012527420    -0.000000038051707    -0.135325009524544
   1  14
    -0.125705747782261     0.131964964040096     0.000000001425150
     0.131964963139205    -0.032392420236350     0.000000001058011
     0.000000002765490     0.000000003238644    -0.004113015785868
   1  15
    -0.007924095600903    -0.009084962181320     0.000000000012406
    -0.009084962800638    -0.017205743418565    -0.000000000539265
     0.000000000123408    -0.000000000459774    -0.016377364542032
   1  16
     0.392229327861805     0.202589553454126     0.000000013105705
     0.202589552586386     0.535481785200791     0.000000017544774
     0.000000020913205     0.000000028918921     0.248976888155759
   1  17
    -0.287337088559946    -0.214977551753687     0.372352015779792
    -0.214977552633784    -0.439349185000664     0.526585282172120
     0.372352015761527     0.526585282782919    -1.047397395085850
   1  18
     0.392229328270343    -0.101294776921636     0.175447698735128
    -0.101294777754285     0.320603114088499    -0.124060261082082
     0.175447698881343    -0.124060260747614     0.463855558867129
   1  19
    -0.007924095871539     0.004542481815948    -0.007867808293326
     0.004542480675311    -0.016584458045609     0.000358698321587
    -0.007867807832674     0.000358698809503    -0.016998649648696
   1  20
    -0.125705747443458    -0.065982484815177     0.114285008522093
    -0.065982485702353    -0.011182871643195     0.012245343524937
     0.114285008708686     0.012245343847573    -0.025322564613093
   1  21
     0.392229342197359    -0.101294771973594    -0.175447704565046
    -0.101294773390357     0.320603101120709     0.124060251308260
    -0.175447703827155     0.124060252405454     0.463855559307877
   1  22
    -0.287337066944279    -0.214977523335241    -0.372352013766923
    -0.214977516877712    -0.439349126489950    -0.526585263832926
    -0.372352009510125    -0.526585275175880    -1.047397516499680
   1  23
    -0.125705740588441    -0.065982478061053    -0.114285014752883
    -0.065982481755942    -0.011182871370722    -0.012245344263956
    -0.114285017733766    -0.012245344329870    -0.025322577876553
   1  24
    -0.007924096175283     0.004542481417518     0.007867809420475
     0.004542480355115    -0.016584457785500    -0.000358697870743
     0.007867809987933    -0.000358697901599    -0.016998648989634
   1  25
    -0.018477326185684     0.000811352479268     0.002960788509594
     0.000811351254850    -0.006031229261958    -0.007298274462561
     0.002960788165927    -0.007298273469150    -0.016998647764368
   1  26
     0.017564953989021    -0.015328637573789     0.026549985895313
    -0.015328636792531    -0.154453564465518    -0.111830726035994
     0.026549988241440    -0.111830729284464    -0.025322578146288
   1  27
    -0.018477326427650    -0.002969792244145     0.000777743251897
    -0.002969793102566    -0.020577284471624     0.001099894216897
     0.000777743104742     0.001099894483860    -0.002452592302423
   1  28
    -0.000000015577643     0.000000001165669     0.000000001088636
     0.000000000203116    -0.000000015450242    -0.000000000779482
     0.000000001309860    -0.000000000338953    -0.000000012803743
   1  29
     0.017564953415092    -0.015328639295071    -0.026549984869562
    -0.015328640423385    -0.154453573517608     0.111830718290439
    -0.026549984500635     0.111830719005507    -0.025322564866659
   1  30
    -0.018477324030942     0.000811351659211    -0.002960786741239
     0.000811350862903    -0.006031230365734     0.007298275608477
    -0.002960786417654     0.007298276133516    -0.016998648886241
   1  31
    -0.000000016981205     0.000000000673136     0.000000000210711
     0.000000000047979    -0.000000016726844     0.000000001769242
     0.000000000393338     0.000000002028946    -0.000000014007568
   1  32
    -0.018477323701194    -0.002969791760887    -0.000777742870113
    -0.002969792626515    -0.020577286312072    -0.001099894263867
    -0.000777742112218    -0.001099893922851    -0.002452593285478
   1  33
     0.041686641630008    -0.010086181122997     0.017469779615241
    -0.010086181600408     0.034554635084129     0.024705999999686
     0.017469780026119     0.024706000396585     0.006026610897846
   1  34
    -0.010464192353234     0.004991512815908    -0.008645550643742
     0.004991512124509    -0.015949436026585    -0.000741195794160
    -0.008645550552269    -0.000741195296226    -0.015093575806246
   1  35
    -0.020061676952038     0.053176865776130    -0.092105027407682
     0.053176864806659     0.017540039637777     0.065128094986516
    -0.092105026841933     0.065128095531242    -0.057663397050606
   1  36
    -0.010464192353234     0.004991512815908    -0.008645550643742
     0.004991512124509    -0.015949436026585    -0.000741195794160
    -0.008645550552269    -0.000741195296226    -0.015093575806247
   1  37
    -0.018477323522020     0.002158442000226     0.002183044402173
     0.002158441098661    -0.007936302242844    -0.008398169325286
     0.002183045267076    -0.008398168865862    -0.015093576823700
   1  38
     0.017564952603407     0.030657282651935     0.000000004340608
     0.030657280642648     0.039242927346279     0.000000005177615
     0.000000007053540     0.000000009293734    -0.219019068474020
   1  39
    -0.018477325862785     0.002158442143695    -0.002183044715450
     0.002158441004484    -0.007936303142731     0.008398168501963
    -0.002183044467551     0.008398169366632    -0.015093574827591
   1  40
    -0.000000015868521     0.000000002290750     0.000000001303394
     0.000000001299237    -0.000000014390788     0.000000000856331
     0.000000001484178     0.000000001444672    -0.000000013572425
   1  41
    -0.020061684298181     0.053176863245602     0.092105034337760
     0.053176863147797     0.017540047205463    -0.065128085623523
     0.092105034215793    -0.065128085796833    -0.057663397295900
   1  42
    -0.010464193244007     0.004991512387830     0.008645551224496
     0.004991511771871    -0.015949435627888     0.000741194738725
     0.008645552191314     0.000741196055325    -0.015093574601400
   1  43
     0.041686643610144    -0.010086179974612    -0.017469777517889
    -0.010086180328201     0.034554636588624    -0.024705996610855
    -0.017469777041413    -0.024705996923521     0.006026605180797
   1  44
    -0.010464193244007     0.004991512387830     0.008645551224496
     0.004991511771871    -0.015949435627888     0.000741194738725
     0.008645552191314     0.000741196055325    -0.015093574601400
   1  45
    -0.018477323522020     0.002158442000226     0.002183044402173
     0.002158441098661    -0.007936302242844    -0.008398169325286
     0.002183045267076    -0.008398168865862    -0.015093576823700
   1  46
    -0.000000015868521     0.000000002290750     0.000000001303394
     0.000000001299237    -0.000000014390788     0.000000000856331
     0.000000001484178     0.000000001444672    -0.000000013572425
   1  47
    -0.018477325862785     0.002158442143695    -0.002183044715450
     0.002158441004484    -0.007936303142731     0.008398168501963
    -0.002183044467551     0.008398169366632    -0.015093574827591
   1  48
     0.017564952603407     0.030657282651935     0.000000004340608
     0.030657280642648     0.039242927346279     0.000000005177615
     0.000000007053540     0.000000009293734    -0.219019068474020
   1  49
    -0.287337088559946    -0.214977551753687     0.372352015779792
    -0.214977552633784    -0.439349185000663     0.526585282172120
     0.372352015761527     0.526585282782919    -1.047397395085850
   1  50
    -0.125705747443458    -0.065982484815177     0.114285008522093
    -0.065982485702353    -0.011182871643195     0.012245343524937
     0.114285008708686     0.012245343847573    -0.025322564613093
   1  51
    -0.007924095871539     0.004542481815948    -0.007867808293326
     0.004542480675311    -0.016584458045609     0.000358698321587
    -0.007867807832674     0.000358698809503    -0.016998649648696
   1  52
     0.392229328270343    -0.101294776921636     0.175447698735128
    -0.101294777754285     0.320603114088499    -0.124060261082082
     0.175447698881343    -0.124060260747614     0.463855558867129
   1  53
     0.017564953415092    -0.015328639295071    -0.026549984869562
    -0.015328640423385    -0.154453573517608     0.111830718290439
    -0.026549984500635     0.111830719005507    -0.025322564866659
   1  54
    -0.018477323701194    -0.002969791760887    -0.000777742870113
    -0.002969792626515    -0.020577286312072    -0.001099894263867
    -0.000777742112218    -0.001099893922851    -0.002452593285478
   1  55
    -0.000000016981205     0.000000000673136     0.000000000210711
     0.000000000047979    -0.000000016726844     0.000000001769242
     0.000000000393338     0.000000002028946    -0.000000014007568
   1  56
    -0.018477324030942     0.000811351659211    -0.002960786741239
     0.000811350862903    -0.006031230365734     0.007298275608477
    -0.002960786417654     0.007298276133516    -0.016998648886241
   1  57
    -0.018477326185684     0.000811352479268     0.002960788509594
     0.000811351254850    -0.006031229261958    -0.007298274462561
     0.002960788165927    -0.007298273469150    -0.016998647764368
   1  58
    -0.000000015577643     0.000000001165669     0.000000001088636
     0.000000000203116    -0.000000015450242    -0.000000000779482
     0.000000001309860    -0.000000000338953    -0.000000012803743
   1  59
    -0.018477326427650    -0.002969792244145     0.000777743251897
    -0.002969793102566    -0.020577284471624     0.001099894216897
     0.000777743104742     0.001099894483860    -0.002452592302423
   1  60
     0.017564953989021    -0.015328637573789     0.026549985895313
    -0.015328636792531    -0.154453564465518    -0.111830726035994
     0.026549988241440    -0.111830729284464    -0.025322578146288
   1  61
     0.392229342197359    -0.101294771973594    -0.175447704565046
    -0.101294773390357     0.320603101120709     0.124060251308260
    -0.175447703827155     0.124060252405454     0.463855559307877
   1  62
    -0.007924096175283     0.004542481417519     0.007867809420475
     0.004542480355115    -0.016584457785500    -0.000358697870743
     0.007867809987933    -0.000358697901599    -0.016998648989634
   1  63
    -0.125705740588441    -0.065982478061053    -0.114285014752883
    -0.065982481755942    -0.011182871370722    -0.012245344263956
    -0.114285017733766    -0.012245344329870    -0.025322577876553
   1  64
    -0.287337066944279    -0.214977523335241    -0.372352013766923
    -0.214977516877712    -0.439349126489950    -0.526585263832926
    -0.372352009510125    -0.526585275175880    -1.047397516499680
   2   1
    -1.503433657054506    -0.000000015102065    -0.000000053408338
    -0.000000014610384    -0.135325006337874    -0.000000003521082
    -0.000000029174449    -0.000000003834313    -0.135325005860138
   2   2
     3.308910790516757    -0.000000000203655     0.000000117245540
    -0.000000000203655     3.308910790823490     0.000000166099938
     0.000000117245540     0.000000166099938     3.308910789785046
   2   3
    -1.503433656752920    -0.000000015151661    -0.000000057259268
    -0.000000015235699    -0.135325007050162    -0.000000008238858
    -0.000000057335009    -0.000000008440162    -0.135325005726569
   2   4
    -0.015369414823698    -0.000000000872667    -0.000000002097532
    -0.000000000872667     0.048818651087507     0.000000000818580
    -0.000000002097532     0.000000000818580     0.048818649861732
   2   5
    -0.125705740836590     0.131964958555932     0.000000001863919
     0.131964962918632    -0.032392419168683     0.000000002276081
     0.000000000831298     0.000000001246913    -0.004113019156501
   2   6
    -0.287337089434290     0.429955080566545     0.000000011095530
     0.429955080202613    -1.351421575083760    -0.000000056971247
     0.000000010894972    -0.000000056806468    -0.135325006356385
   2   7
     0.392229329133314     0.202589551961569     0.000000024030607
     0.202589551845029     0.535481785910386     0.000000034187714
     0.000000023917585     0.000000034137476     0.248976885094259
   2   8
    -0.007924095997024    -0.009084962494952    -0.000000001891371
    -0.009084962892388    -0.017205743817169    -0.000000003097787
    -0.000000002018779    -0.000000002880335    -0.016377364440792
   2   9
    -0.010464190719990    -0.009983022591103    -0.000000001933845
    -0.009983022810725    -0.014665646580627    -0.000000001908674
    -0.000000001845973    -0.000000001850636    -0.016377366127897
   2  10
     0.041686642159753     0.020172363350123     0.000000001347473
     0.020172362801989    -0.008237407703805    -0.000000001333116
     0.000000000802351    -0.000000000249598     0.048818649454311
   2  11
    -0.010464192668455    -0.009983022622283    -0.000000002943299
    -0.009983022935224    -0.014665646579742    -0.000000002660148
    -0.000000002592041    -0.000000002303129    -0.016377363901961
   2  12
    -0.020061676775221    -0.106353726524055    -0.000000007781261
    -0.106353727071551    -0.095265123148671    -0.000000010847914
    -0.000000003897326    -0.000000005128458     0.055141762174229
   2  13
     0.392229320003396     0.202589548919999     0.000000022321132
     0.202589555608229     0.535481790707280     0.000000031196812
     0.000000018016316     0.000000025543272     0.248976890401719
   2  14
    -0.287337089442036     0.429955080642868     0.000000011064058
     0.429955080245433    -1.351421575162840    -0.000000056990648
     0.000000010936650    -0.000000056773196    -0.135325006298318
   2  15
    -0.125705746501171     0.131964962476355     0.000000001302013
     0.131964962359815    -0.032392419439636     0.000000002058542
     0.000000001188991     0.000000002008304    -0.004113018909380
   2  16
    -0.007924095989278    -0.009084962571275    -0.000000001859899
    -0.009084962935208    -0.017205743738090    -0.000000003078386
    -0.000000002060457    -0.000000002913607    -0.016377364498859
   2  17
    -0.125705743968793    -0.065982483400529     0.114285003023080
    -0.065982486456872    -0.011182870573917     0.012245339709277
     0.114285006172317     0.012245340830539    -0.025322564001288
   2  18
    -0.287337082342132    -0.214977542847475     0.372352003981485
    -0.214977543172832    -0.439349171931119     0.526585266923010
     0.372351995631105     0.526585255368216    -1.047397376572680
   2  19
     0.392229332013364    -0.101294770877886     0.175447702983092
    -0.101294771446969     0.320603102304425    -0.124060245897031
     0.175447710884324    -0.124060251353477     0.463855565838196
   2  20
    -0.007924095800679     0.004542482407268    -0.007867808434485
     0.004542482229421    -0.016584459700731     0.000358698384143
    -0.007867808829289     0.000358698301850    -0.016998648914732
   2  21
    -0.007924095811611     0.004542482354707     0.007867808810585
     0.004542481232231    -0.016584458894002    -0.000358699179871
     0.007867808966251    -0.000358698489878    -0.016998647848150
   2  22
     0.392229336266182    -0.101294772887825    -0.175447695973271
    -0.101294766342229     0.320603098013766     0.124060256399051
    -0.175447699955770     0.124060267221547     0.463855566214261
   2  23
    -0.287337073423252    -0.214977529774101    -0.372352027190300
    -0.214977530284207    -0.439349154765279    -0.526585299235577
    -0.372352026983974    -0.526585298778510    -1.047397524151539
   2  24
    -0.125705741787475    -0.065982483602948    -0.114285019852125
    -0.065982483291004    -0.011182869683791    -0.012245347874153
    -0.114285020487409    -0.012245346476651    -0.025322582469338
   2  25
    -0.000000015095494    -0.000000000173419     0.000000001016854
    -0.000000000895029    -0.000000014833038    -0.000000001733849
     0.000000000369872    -0.000000001053477    -0.000000014569239
   2  26
    -0.018477323439436     0.000811351559149     0.002960785924195
     0.000811351036557    -0.006031230291013    -0.007298275417089
     0.002960786029829    -0.007298275698159    -0.016998650891667
   2  27
     0.017564953212840    -0.015328640802201     0.026549984214095
    -0.015328639587980    -0.154453561102444    -0.111830728231147
     0.026549986072647    -0.111830731605060    -0.025322581656431
   2  28
    -0.018477325583573    -0.002969791578908     0.000777740616748
    -0.002969792038661    -0.020577285774848     0.001099891682228
     0.000777740534646     0.001099891809526    -0.002452592757493
   2  29
    -0.018477326847321    -0.002969792067928    -0.000777743900253
    -0.002969792693222    -0.020577285580519    -0.001099896530843
    -0.000777743472494    -0.001099895618459    -0.002452593074706
   2  30
     0.017564955277108    -0.015328640850953    -0.026549985784279
    -0.015328639335080    -0.154453570363223     0.111830713615430
    -0.026549987702167     0.111830717105610    -0.025322565027063
   2  31
    -0.018477327007687     0.000811351252528    -0.002960787606251
     0.000811351336642    -0.006031231377369     0.007298274996218
    -0.002960787720706     0.007298274649799    -0.016998649519505
   2  32
    -0.000000013360714    -0.000000000909761    -0.000000002097578
    -0.000000001174794    -0.000000015473959    -0.000000000007429
    -0.000000001427459     0.000000000289413    -0.000000016013794
   2  33
    -0.010464192988174     0.004991511720656    -0.008645551718672
     0.004991511951474    -0.015949434180701    -0.000741196172915
    -0.008645551820210    -0.000741196157203    -0.015093576019178
   2  34
     0.041686643309197    -0.010086181680556     0.017469778376297
    -0.010086181868943     0.034554634243987     0.024705998254263
     0.017469777780037     0.024705997895849     0.006026608854059
   2  35
    -0.010464192633149     0.004991511811009    -0.008645551746431
     0.004991511549767    -0.015949435212971    -0.000741195568288
    -0.008645551693099    -0.000741195404748    -0.015093575652119
   2  36
    -0.020061677593478     0.053176862350256    -0.092105028124372
     0.053176865664791     0.017540040854283     0.065128093340422
    -0.092105030357477     0.065128090663922    -0.057663400403017
   2  37
    -0.000000013003605     0.000000001222778    -0.000000001102229
     0.000000000697102    -0.000000013900917    -0.000000001366818
    -0.000000000693266    -0.000000001196814    -0.000000016969828
   2  38
    -0.018477326189313     0.002158440355437     0.002183043308333
     0.002158439545047    -0.007936300947976    -0.008398170119649
     0.002183043388870    -0.008398170376388    -0.015093577729442
   2  39
     0.017564953300956     0.030657281867849     0.000000001195178
     0.030657281436520     0.039242926537094     0.000000001891066
     0.000000001143078     0.000000002222474    -0.219019065308684
   2  40
    -0.018477325941991     0.002158441108521    -0.002183044733964
     0.002158440825173    -0.007936302893452     0.008398168889665
    -0.002183044850871     0.008398168944625    -0.015093575101205
   2  41
    -0.010464193161788     0.004991511750154     0.008645551868266
     0.004991511950873    -0.015949434869338     0.000741195724504
     0.008645551233815     0.000741195171012    -0.015093574799505
   2  42
    -0.020061680192199     0.053176863377997     0.092105031114377
     0.053176863059310     0.017540043542903    -0.065128089111637
     0.092105031567190    -0.065128088175684    -0.057663400119688
   2  43
    -0.010464192267148     0.004991510319935     0.008645550775487
     0.004991510009610    -0.015949433777565     0.000741194974629
     0.008645550829922     0.000741194756190    -0.015093576453877
   2  44
     0.041686643359520    -0.010086181019764    -0.017469778798538
    -0.010086181337888     0.034554635550408    -0.024705998857685
    -0.017469778343448    -0.024705997921898     0.006026602225003
   2  45
     0.017564954845308     0.030657281152273     0.000000003480531
     0.030657281636166     0.039242927323810     0.000000005118019
     0.000000001382187     0.000000001738568    -0.219019070767100
   2  46
    -0.018477326033933     0.002158441425817     0.002183044030186
     0.002158440731616    -0.007936302393482    -0.008398169528534
     0.002183043913338    -0.008398169473126    -0.015093576204167
   2  47
    -0.000000014903546     0.000000001243861    -0.000000001428483
     0.000000000812852    -0.000000014241590    -0.000000001816261
    -0.000000001478274    -0.000000001484798    -0.000000016321029
   2  48
    -0.018477326136403     0.002158440188430    -0.002183045194632
     0.002158439583468    -0.007936301235656     0.008398167860684
    -0.002183045470929     0.008398168409412    -0.015093576452468
   2  49
     0.392229332765348    -0.101294773815111     0.175447701661446
    -0.101294780865404     0.320603111625225    -0.124060257014225
     0.175447705190067    -0.124060251266451     0.463855557351458
   2  50
    -0.287337082417778    -0.214977542702278     0.372352004011765
    -0.214977543082162    -0.439349172004360     0.526585267031477
     0.372351995701763     0.526585255464851    -1.047397376349504
   2  51
    -0.125705744719456    -0.065982484393778     0.114285002076228
    -0.065982486632382    -0.011182870332170     0.012245340681552
     0.114285006327824     0.012245339847317    -0.025322565078420
   2  52
    -0.007924095725033     0.004542482262070    -0.007867808464765
     0.004542482138751    -0.016584459627489     0.000358698275676
    -0.007867808899946     0.000358698205215    -0.016998649137908
   2  53
    -0.018477326886391     0.000811351230105    -0.002960787798703
     0.000811350811003    -0.006031229943426     0.007298273989570
    -0.002960787727266     0.007298274096035    -0.016998648326082
   2  54
     0.017564955606837    -0.015328640874714    -0.026549985932021
    -0.015328639472066    -0.154453570652695     0.111830713692227
    -0.026549987390215     0.111830717536497    -0.025322565083487
   2  55
    -0.018477326968585    -0.002969792045206    -0.000777743707832
    -0.002969792167559    -0.020577287014343    -0.001099895524158
    -0.000777743465907    -0.001099895064808    -0.002452594267945
   2  56
    -0.000000013690443    -0.000000000882252    -0.000000001952000
    -0.000000001038058    -0.000000015184077    -0.000000000083933
    -0.000000001739267    -0.000000000141293    -0.000000015957782
   2  57
     0.017564953585781    -0.015328636551957     0.026549986658390
    -0.015328639948668    -0.154453563560573    -0.111830731167938
     0.026549985632414    -0.111830726936085    -0.025322579233948
   2  58
    -0.018477325675577     0.000811351885807     0.002960785221188
     0.000811351426054    -0.006031229851712    -0.007298276582547
     0.002960785139086    -0.007298276455249    -0.016998649284518
   2  59
    -0.000000015468436    -0.000000001026656     0.000000000533822
    -0.000000001480116    -0.000000014111417    -0.000000001343939
     0.000000000264061    -0.000000001170424    -0.000000015255213
   2  60
    -0.018477323347457    -0.002969791945721     0.000777741296681
    -0.002969792428179    -0.020577286447343     0.001099892713145
     0.000777741425411     0.001099892970246    -0.002452594131705
   2  61
    -0.287337066423546    -0.214977520567521    -0.372352007623279
    -0.214977521474549    -0.439349139861485    -0.526585272190318
    -0.372352015342366    -0.526585282960890    -1.047397503259406
   2  62
     0.392229336423994    -0.101294772686445    -0.175447696019379
    -0.101294766710075     0.320603098291946     0.124060256602327
    -0.175447699924394     0.124060267246527     0.463855565775644
   2  63
    -0.007924095997847     0.004542482578021     0.007867807710038
     0.004542482062148    -0.016584460455531    -0.000358700101827
     0.007867807898602    -0.000358699655498    -0.016998648585186
   2  64
    -0.125705741951033    -0.065982483798408    -0.114285019799967
    -0.065982482915889    -0.011182869959930    -0.012245348080729
    -0.114285020514591    -0.012245346504793    -0.025322582033080
   3   1
    -0.015369415411451    -0.000000000135760    -0.000000001121510
     0.000000000450557     0.048818649975624     0.000000001223852
    -0.000000000197875     0.000000001111924     0.048818653018602
   3   2
    -1.503433656752920    -0.000000015235699    -0.000000057335009
    -0.000000015151661    -0.135325007050162    -0.000000008440162
    -0.000000057259268    -0.000000008238858    -0.135325005726569
   3   3
     3.308910790226966     0.000000000482160     0.000000117673273
     0.000000000482160     3.308910788996898     0.000000166455325
     0.000000117673273     0.000000166455325     3.308910793078354
   3   4
    -1.503433656752920    -0.000000015235699    -0.000000057335009
    -0.000000015151661    -0.135325007050162    -0.000000008440162
    -0.000000057259268    -0.000000008238858    -0.135325005726569
   3   5
    -0.007924093817887    -0.009084962532226    -0.000000000884924
    -0.009084962714630    -0.017205744481791    -0.000000001940375
    -0.000000001220507    -0.000000001850588    -0.016377364922897
   3   6
    -0.125705747477355     0.131964963325527     0.000000001351005
     0.131964963045632    -0.032392420871985     0.000000001447630
     0.000000001226187     0.000000001813713    -0.004113015708320
   3   7
    -0.287337088747895     0.429955080319150     0.000000011398531
     0.429955080286649    -1.351421575478004    -0.000000056206251
     0.000000011361249    -0.000000056055185    -0.135325006264135
   3   8
     0.392229328149383     0.202589552887063     0.000000024048127
     0.202589552573666     0.535481784398958     0.000000033557401
     0.000000023996460     0.000000033976157     0.248976888353385
   3   9
    -0.020061675113203    -0.106353723640875    -0.000000007969640
    -0.106353726934401    -0.095265124728144    -0.000000010767651
    -0.000000005856032    -0.000000007715218     0.055141765185741
   3  10
    -0.010464192890857    -0.009983022470122    -0.000000000752923
    -0.009983022934110    -0.014665647918081    -0.000000000927913
    -0.000000000692148    -0.000000000592185    -0.016377364276464
   3  11
     0.041686642092213     0.020172363799660     0.000000000678115
     0.020172363570756    -0.008237408192069    -0.000000001258015
     0.000000001105114    -0.000000000699692     0.048818653122124
   3  12
    -0.010464192890857    -0.009983022470122    -0.000000000752923
    -0.009983022934110    -0.014665647918081    -0.000000000927913
    -0.000000000692148    -0.000000000592185    -0.016377364276464
   3  13
    -0.007924093817887    -0.009084962532226    -0.000000000884924
    -0.009084962714630    -0.017205744481791    -0.000000001940375
    -0.000000001220507    -0.000000001850588    -0.016377364922897
   3  14
     0.392229328149383     0.202589552887063     0.000000024048127
     0.202589552573666     0.535481784398957     0.000000033557401
     0.000000023996460     0.000000033976157     0.248976888353385
   3  15
    -0.287337088747895     0.429955080319150     0.000000011398531
     0.429955080286649    -1.351421575478004    -0.000000056206251