64   
1    

1    
  0.0300000000000000   0.0000000001824648   0.0000000003157866
  -0.0992673157   -0.0000000071   -0.0000000093
   0.0472748523    0.0000000027   -0.0000000016
   0.0004587411   -0.0000000009   -0.0000000015
   0.0429403480    0.0000000038    0.0000000061
   0.0089146436   -0.0132499492    0.0000000035
  -0.0114175569   -0.0055093649   -0.0000000006
   0.0002677732    0.0003719811   -0.0000000007
   0.0036344026   -0.0038636687    0.0000000003
  -0.0012498203   -0.0006073690   -0.0000000002
   0.0003105137    0.0002791767   -0.0000000002
   0.0006018478    0.0031906098    0.0000000009
   0.0003176416    0.0003195373    0.0000000014
   0.0083225277   -0.0125386948   -0.0000000019
   0.0039084818   -0.0040534498    0.0000000003
   0.0002086946    0.0001752600   -0.0000000002
  -0.0121161972   -0.0066460146    0.0000000012
   0.0089146405    0.0066249774   -0.0114747917
  -0.0114175578    0.0027546815   -0.0047712519
   0.0002677770   -0.0001859910    0.0003221449
   0.0036344031    0.0019318343   -0.0033460345
  -0.0121162004    0.0033230062    0.0057556170
   0.0083225200    0.0062693524    0.0108588310
   0.0039084834    0.0020267254    0.0035103906
   0.0002086988   -0.0000876298   -0.0001517802
   0.0005565615   -0.0000376208   -0.0000757993
  -0.0005272194    0.0004258762   -0.0008165663
   0.0005514127    0.0000927938   -0.0000426319
  -0.0000000004    0.0000000002    0.0000000001
  -0.0005272197    0.0004942307    0.0007771017
   0.0005514140   -0.0000094799    0.0001016770
  -0.0000000003   -0.0000000009   -0.0000000005
   0.0005565604    0.0000844520    0.0000053204
  -0.0012498214    0.0003036853   -0.0005259981
   0.0003105128   -0.0001395903    0.0002417770
   0.0006018496   -0.0015953050    0.0027631488
   0.0003176411   -0.0001597690    0.0002767269
   0.0005565612   -0.0000468324   -0.0000704798
  -0.0005272207   -0.0009201051   -0.0000394649
   0.0005514137   -0.0000833152    0.0000590480
   0.0000000007   -0.0000000007    0.0000000008
   0.0006018507   -0.0015953055   -0.0027631495
   0.0003176414   -0.0001597703   -0.0002767307
  -0.0012498223    0.0003036851    0.0005259961
   0.0003105147   -0.0001395888   -0.0002417751
   0.0005514141   -0.0000833174   -0.0000590452
   0.0000000002   -0.0000000004    0.0000000008
   0.0005565602   -0.0000468343    0.0000704763
  -0.0005272209   -0.0009201039    0.0000394612
   0.0083225288    0.0062693474   -0.0108588252
   0.0039084823    0.0020267247   -0.0035103896
   0.0002086943   -0.0000876307    0.0001517801
  -0.0121161979    0.0033230089   -0.0057556181
  -0.0005272203    0.0004258761    0.0008165661
   0.0005514136    0.0000927934    0.0000426329
   0.0000000000   -0.0000000007   -0.0000000003
   0.0005565608   -0.0000376182    0.0000757988
   0.0005514143   -0.0000094753   -0.0001016768
  -0.0000000007    0.0000000008    0.0000000007
   0.0005565593    0.0000844515   -0.0000053213
  -0.0005272195    0.0004942275   -0.0007771020
  -0.0114175575    0.0027546820    0.0047712512
   0.0002677722   -0.0001859903   -0.0003221443
   0.0036344019    0.0019318341    0.0033460354
   0.0089146420    0.0066249763    0.0114747959
