64   
1    

1    
  0.0300000000000000   0.0000000001894261   0.0000000003278356
  -0.0992674395   -0.0000000049   -0.0000000131
   0.0472749009    0.0000000022    0.0000000036
   0.0004587415   -0.0000000013    0.0000000005
   0.0429403849   -0.0000000008   -0.0000000004
   0.0089146394   -0.0132499570   -0.0000000026
  -0.0114175486   -0.0055093447    0.0000000005
   0.0002677779    0.0003719817    0.0000000008
   0.0036344054   -0.0038636673   -0.0000000006
  -0.0012498134   -0.0006073741    0.0000000013
   0.0003105084    0.0002791802    0.0000000017
   0.0006018522    0.0031906138    0.0000000009
   0.0003176382    0.0003195370    0.0000000018
   0.0083225223   -0.0125387145    0.0000000030
   0.0039084934   -0.0040534548    0.0000000010
   0.0002086942    0.0001752618    0.0000000006
  -0.0121161997   -0.0066460111   -0.0000000009
   0.0089146376    0.0066249773   -0.0114747983
  -0.0114175454    0.0027546744   -0.0047712304
   0.0002677785   -0.0001859917    0.0003221457
   0.0036344030    0.0019318322   -0.0033460348
  -0.0121161980    0.0033230052    0.0057556129
   0.0083225219    0.0062693593    0.0108588509
   0.0039084927    0.0020267263    0.0035103971
   0.0002086897   -0.0000876326   -0.0001517806
   0.0005565616   -0.0000376149   -0.0000758014
  -0.0005272232    0.0004258800   -0.0008165644
   0.0005514137    0.0000927969   -0.0000426258
  -0.0000000009    0.0000000010    0.0000000007
  -0.0005272243    0.0004942244    0.0007771043
   0.0005514161   -0.0000094817    0.0001016778
   0.0000000008   -0.0000000005   -0.0000000002
   0.0005565595    0.0000844547    0.0000053214
  -0.0012498167    0.0003036851   -0.0005259991
   0.0003105088   -0.0001395887    0.0002417752
   0.0006018522   -0.0015953054    0.0027631492
   0.0003176410   -0.0001597698    0.0002767262
   0.0005565605   -0.0000468383   -0.0000704769
  -0.0005272217   -0.0009201040   -0.0000394597
   0.0005514128   -0.0000833137    0.0000590472
   0.0000000000    0.0000000001   -0.0000000012
   0.0006018508   -0.0015953054   -0.0027631497
   0.0003176441   -0.0001597679   -0.0002767247
  -0.0012498152    0.0003036854    0.0005259981
   0.0003105080   -0.0001395901   -0.0002417796
   0.0005514128   -0.0000833132   -0.0000590501
   0.0000000008   -0.0000000005   -0.0000000007
   0.0005565619   -0.0000468357    0.0000704779
  -0.0005272239   -0.0009201044    0.0000394607
   0.0083225200    0.0062693588   -0.0108588455
   0.0039084907    0.0020267263   -0.0035103950
   0.0002086945   -0.0000876330    0.0001517809
  -0.0121161946    0.0033230041   -0.0057556141
  -0.0005272244    0.0004258779    0.0008165641
   0.0005514138    0.0000927965    0.0000426264
  -0.0000000006    0.0000000014   -0.0000000007
   0.0005565627   -0.0000376202    0.0000758000
   0.0005514169   -0.0000094826   -0.0001016780
   0.0000000011   -0.0000000001    0.0000000003
   0.0005565590    0.0000844549   -0.0000053220
  -0.0005272250    0.0004942258   -0.0007771056
  -0.0114175502    0.0027546737    0.0047712294
   0.0002677798   -0.0001859908   -0.0003221442
   0.0036344075    0.0019318338    0.0033460358
   0.0089146319    0.0066249838    0.0114748027
