64   
1    

1    
  0.0300000000000000   0.0000000001824651   0.0000000003157871
  -0.0992673237   -0.0000000035   -0.0000000157
   0.0472748457    0.0000000035   -0.0000000049
   0.0004587441    0.0000000009   -0.0000000007
   0.0429403582    0.0000000054    0.0000000012
   0.0089146444   -0.0132499562   -0.0000000014
  -0.0114175611   -0.0055093652   -0.0000000007
   0.0002677732    0.0003719789   -0.0000000008
   0.0036344094   -0.0038636706    0.0000000017
  -0.0012498205   -0.0006073768    0.0000000001
   0.0003105119    0.0002791751    0.0000000004
   0.0006018499    0.0031906091    0.0000000010
   0.0003176435    0.0003195368    0.0000000002
   0.0083225229   -0.0125386864   -0.0000000074
   0.0039084840   -0.0040534501   -0.0000000020
   0.0002086938    0.0001752607    0.0000000015
  -0.0121161968   -0.0066460092   -0.0000000032
   0.0089146399    0.0066249801   -0.0114747945
  -0.0114175592    0.0027546829   -0.0047712491
   0.0002677787   -0.0001859896    0.0003221440
   0.0036344059    0.0019318378   -0.0033460343
  -0.0121161998    0.0033230061    0.0057556109
   0.0083225161    0.0062693502    0.0108588240
   0.0039084871    0.0020267272    0.0035103926
   0.0002086989   -0.0000876305   -0.0001517800
   0.0005565633   -0.0000376233   -0.0000758015
  -0.0005272247    0.0004258722   -0.0008165689
   0.0005514140    0.0000927936   -0.0000426311
   0.0000000002   -0.0000000005   -0.0000000004
  -0.0005272222    0.0004942277    0.0007771037
   0.0005514140   -0.0000094807    0.0001016761
   0.0000000007    0.0000000004    0.0000000016
   0.0005565601    0.0000844541    0.0000053227
  -0.0012498214    0.0003036863   -0.0005260005
   0.0003105111   -0.0001395907    0.0002417789
   0.0006018522   -0.0015953074    0.0027631521
   0.0003176427   -0.0001597714    0.0002767320
   0.0005565618   -0.0000468351   -0.0000704833
  -0.0005272242   -0.0009201050   -0.0000394672
   0.0005514160   -0.0000833152    0.0000590496
   0.0000000001   -0.0000000003   -0.0000000003
   0.0006018490   -0.0015953058   -0.0027631519
   0.0003176407   -0.0001597703   -0.0002767327
  -0.0012498176    0.0003036898    0.0005260029
   0.0003105108   -0.0001395863   -0.0002417714
   0.0005514109   -0.0000833148   -0.0000590423
   0.0000000013    0.0000000010    0.0000000007
   0.0005565652   -0.0000468338    0.0000704840
  -0.0005272236   -0.0009201087    0.0000394701
   0.0083225198    0.0062693405   -0.0108588207
   0.0039084834    0.0020267242   -0.0035103907
   0.0002086975   -0.0000876291    0.0001517795
  -0.0121161960    0.0033230026   -0.0057556144
  -0.0005272240    0.0004258731    0.0008165685
   0.0005514119    0.0000927889    0.0000426313
   0.0000000006   -0.0000000020    0.0000000011
   0.0005565626   -0.0000376230    0.0000758000
   0.0005514114   -0.0000094757   -0.0001016756
  -0.0000000002   -0.0000000001    0.0000000008
   0.0005565637    0.0000844557   -0.0000053212
  -0.0005272203    0.0004942352   -0.0007771048
  -0.0114175671    0.0027546822    0.0047712475
   0.0002677714   -0.0001859877   -0.0003221423
   0.0036344114    0.0019318385    0.0033460354
   0.0089146467    0.0066249845    0.0114747997
