  64   64
   1   1
     3.308910742980557     0.000000001224177     0.000000001601870
     0.000000001224177     3.308910743845367     0.000000001161810
     0.000000001601870     0.000000001161810     3.308910746037204
   1   2
    -1.503433684887369    -0.000000014610385    -0.000000029174449
    -0.000000015102065    -0.135324996796442    -0.000000003834313
    -0.000000053408339    -0.000000003521082    -0.135324996318706
   1   3
    -0.015369298060929     0.000000000450559    -0.000000000197872
    -0.000000000135759     0.048818627550363     0.000000001111924
    -0.000000001121506     0.000000001223851     0.048818630593341
   1   4
    -1.503433684887369    -0.000000014610385    -0.000000029174449
    -0.000000015102065    -0.135324996796442    -0.000000003834313
    -0.000000053408339    -0.000000003521082    -0.135324996318706
   1   5
    -0.287337071712481     0.429955073219275     0.000000008588704
     0.429955093975983    -1.351421606302989    -0.000000026603726
     0.000000012527420    -0.000000038051708    -0.135324999983112
   1   6
     0.392229285084025     0.202589600838377     0.000000013105706
     0.202589599970637     0.535481775928740     0.000000017544775
     0.000000020913208     0.000000028918924     0.248976811872255
   1   7
    -0.007924086431622    -0.009084968987750     0.000000000012406
    -0.009084969607068    -0.017205738906063    -0.000000000539265
     0.000000000123409    -0.000000000459774    -0.016377377390483
   1   8
    -0.125705716277911     0.131964925170288     0.000000001425150
     0.131964924269397    -0.032392416217108     0.000000001058010
     0.000000002765490     0.000000003238643    -0.004113027976127
   1   9
     0.041686635478171     0.020172319691622     0.000000001039724
     0.020172320309904    -0.008237305455292    -0.000000000310547
     0.000000001549462    -0.000000000549653     0.048818629765348
   1  10
    -0.010464183880859    -0.009983028590178     0.000000000883471
    -0.009983029640933    -0.014665642830535     0.000000000798802
     0.000000001025441     0.000000001110365    -0.016377377260338
   1  11
    -0.020061672696897    -0.106353700597710    -0.000000004085177
    -0.106353701412924    -0.095265100915790    -0.000000005114638
    -0.000000007475356    -0.000000010164547     0.055141752585096
   1  12
    -0.010464183880859    -0.009983028590178     0.000000000883471
    -0.009983029640933    -0.014665642830535     0.000000000798802
     0.000000001025441     0.000000001110365    -0.016377377260338
   1  13
    -0.287337071712481     0.429955073219275     0.000000008588704
     0.429955093975983    -1.351421606302989    -0.000000026603726
     0.000000012527420    -0.000000038051708    -0.135324999983112
   1  14
    -0.125705716277911     0.131964925170288     0.000000001425150
     0.131964924269397    -0.032392416217108     0.000000001058010
     0.000000002765490     0.000000003238643    -0.004113027976127
   1  15
    -0.007924086431622    -0.009084968987750     0.000000000012406
    -0.009084969607068    -0.017205738906063    -0.000000000539265
     0.000000000123409    -0.000000000459774    -0.016377377390483
   1  16
     0.392229285084025     0.202589600838377     0.000000013105706
     0.202589599970637     0.535481775928740     0.000000017544775
     0.000000020913208     0.000000028918924     0.248976811872255
   1  17
    -0.287337083171214    -0.214977557626491     0.372352025951787
    -0.214977558506588    -0.439349183764631     0.526585296557494
     0.372352025933521     0.526585297168292    -1.047397410460615
   1  18
     0.392229285492564    -0.101294800613762     0.175447739771093
    -0.101294801446411     0.320603054557859    -0.124060290098892
     0.175447739917308    -0.124060289764424     0.463855532842213
   1  19
    -0.007924086702257     0.004542485219163    -0.007867814187866
     0.004542484078527    -0.016584466553821     0.000358690804074
    -0.007867813727214     0.000358691291989    -0.016998649476432
   1  20
    -0.125705715939108    -0.065982465380271     0.114284974859852
    -0.065982466267447    -0.011182879781078     0.012245336506016
     0.114284975046446     0.012245336828652    -0.025322564646227
   1  21
     0.392229299419583    -0.101294795665718    -0.175447745601013
    -0.101294797082482     0.320603041590066     0.124060280325068
    -0.175447744863122     0.124060281422261     0.463855533282962
   1  22
    -0.287337061555546    -0.214977529208045    -0.372352023938918
    -0.214977522750515    -0.439349125253917    -0.526585278218300
    -0.372352019682120    -0.526585289561254    -1.047397531874448
   1  23
    -0.125705709084093    -0.065982458626149    -0.114284981090640
    -0.065982462321038    -0.011182879508606    -0.012245337245035
    -0.114284984071523    -0.012245337310949    -0.025322577909683
   1  24
    -0.007924087006002     0.004542484820733     0.007867815315017
     0.004542483758330    -0.016584466293712    -0.000358690353230
     0.007867815882474    -0.000358690384086    -0.016998648817369
   1  25
    -0.018477334868785     0.000811349570712     0.002960783386861
     0.000811348346295    -0.006031219917789    -0.007298282525825
     0.002960783043194    -0.007298281532414    -0.016998647592104
   1  26
     0.017564938040228    -0.015328634916105     0.026549981292067
    -0.015328634134847    -0.154453525150260    -0.111830691959287
     0.026549983638194    -0.111830695207756    -0.025322578179418
   1  27
    -0.018477335110751    -0.002969786353451     0.000777743209414
    -0.002969787211872    -0.020577288989374     0.001099894156816
     0.000777743062258     0.001099894423779    -0.002452578268238
   1  28
     0.000000003866802     0.000000003042984    -0.000000002162967
     0.000000002080430     0.000000005321664     0.000000001519749
    -0.000000001941743     0.000000001960279     0.000000005313240
   1  29
     0.017564937466299    -0.015328636637386    -0.026549980266317
    -0.015328637765700    -0.154453534202347     0.111830684213734
    -0.026549979897390     0.111830684928802    -0.025322564899793
   1  30
    -0.018477332714043     0.000811348750656    -0.002960781618507
     0.000811347954348    -0.006031221021565     0.007298283671741
    -0.002960781294922     0.007298284196780    -0.016998648713976
   1  31
     0.000000002463239     0.000000002550450     0.000000003462314
     0.000000001925293     0.000000004045063    -0.000000000529989
     0.000000003644942    -0.000000000270285     0.000000004109415
   1  32
    -0.018477332384295    -0.002969785870193    -0.000777742827630
    -0.002969786735821    -0.020577290829823    -0.001099894203787
    -0.000777742069735    -0.001099893862771    -0.002452579251293
   1  33
     0.041686634735391    -0.010086159159350     0.017469741573091
    -0.010086159636761     0.034554643720156     0.024705946199960
     0.017469741983969     0.024705946596858     0.006026681656436
   1  34
    -0.010464183045203     0.004991516194596    -0.008645556495799
     0.004991515503197    -0.015949444569484    -0.000741203251593
    -0.008645556404326    -0.000741202753659    -0.015093575738046
   1  35
    -0.020061672507594     0.053176853355903    -0.092105005895219
     0.053176852386432     0.017540035299796     0.065128079774907
    -0.092105005329471     0.065128080319633    -0.057663383823735
   1  36
    -0.010464183045203     0.004991516194596    -0.008645556495799
     0.004991515503197    -0.015949444569484    -0.000741203251593
    -0.008645556404326    -0.000741202753659    -0.015093575738046
   1  37
    -0.018477332205120     0.002158439018087     0.002183039321924
     0.002158438116522    -0.007936292794611    -0.008398177328469
     0.002183040186826    -0.008398176869046    -0.015093576755499
   1  38
     0.017564936654614     0.030657277336565     0.000000004340607
     0.030657275327278     0.039242907638952     0.000000005177613
     0.000000007053538     0.000000009293731    -0.219019009484565
   1  39
    -0.018477334545886     0.002158439161556    -0.002183039635201
     0.002158438022344    -0.007936293694499     0.008398176505147
    -0.002183039387302     0.008398177369816    -0.015093574759388
   1  40
     0.000000003575924    -0.000000001463878     0.000000001303394
    -0.000000002455392     0.000000002398734     0.000000000856331
     0.000000001484177     0.000000001444671     0.000000008526943
   1  41
    -0.020061679853735     0.053176850825375     0.092105012825297
     0.053176850727571     0.017540042867480    -0.065128070411915
     0.092105012703329    -0.065128070585225    -0.057663384069029
   1  42
    -0.010464183935976     0.004991515766517     0.008645557076553
     0.004991515150558    -0.015949444170788     0.000741202196158
     0.008645558043371     0.000741203512757    -0.015093574533198
   1  43
     0.041686636715524    -0.010086158010968    -0.017469739475739
    -0.010086158364558     0.034554645224646    -0.024705942811131
    -0.017469738999263    -0.024705943123796     0.006026675939399
   1  44
    -0.010464183935976     0.004991515766517     0.008645557076553
     0.004991515150558    -0.015949444170788     0.000741202196158
     0.008645558043371     0.000741203512757    -0.015093574533198
   1  45
    -0.018477332205120     0.002158439018087     0.002183039321924
     0.002158438116522    -0.007936292794611    -0.008398177328469
     0.002183040186826    -0.008398176869046    -0.015093576755499
   1  46
     0.000000003575924    -0.000000001463878     0.000000001303394
    -0.000000002455392     0.000000002398734     0.000000000856331
     0.000000001484177     0.000000001444671     0.000000008526943
   1  47
    -0.018477334545886     0.002158439161556    -0.002183039635201
     0.002158438022344    -0.007936293694499     0.008398176505147
    -0.002183039387302     0.008398177369816    -0.015093574759388
   1  48
     0.017564936654614     0.030657277336565     0.000000004340607
     0.030657275327278     0.039242907638952     0.000000005177613
     0.000000007053538     0.000000009293731    -0.219019009484565
   1  49
    -0.287337083171214    -0.214977557626491     0.372352025951787
    -0.214977558506588    -0.439349183764631     0.526585296557494
     0.372352025933521     0.526585297168292    -1.047397410460615
   1  50
    -0.125705715939108    -0.065982465380271     0.114284974859852
    -0.065982466267447    -0.011182879781078     0.012245336506016
     0.114284975046446     0.012245336828652    -0.025322564646227
   1  51
    -0.007924086702257     0.004542485219163    -0.007867814187866
     0.004542484078527    -0.016584466553821     0.000358690804074
    -0.007867813727214     0.000358691291989    -0.016998649476432
   1  52
     0.392229285492564    -0.101294800613762     0.175447739771093
    -0.101294801446411     0.320603054557859    -0.124060290098892
     0.175447739917308    -0.124060289764424     0.463855532842213
   1  53
     0.017564937466299    -0.015328636637386    -0.026549980266317
    -0.015328637765700    -0.154453534202347     0.111830684213734
    -0.026549979897390     0.111830684928802    -0.025322564899793
   1  54
    -0.018477332384295    -0.002969785870193    -0.000777742827630
    -0.002969786735821    -0.020577290829823    -0.001099894203787
    -0.000777742069735    -0.001099893862771    -0.002452579251293
   1  55
     0.000000002463239     0.000000002550450     0.000000003462314
     0.000000001925293     0.000000004045063    -0.000000000529989
     0.000000003644942    -0.000000000270285     0.000000004109415
   1  56
    -0.018477332714043     0.000811348750656    -0.002960781618507
     0.000811347954348    -0.006031221021565     0.007298283671741
    -0.002960781294922     0.007298284196780    -0.016998648713976
   1  57
    -0.018477334868785     0.000811349570712     0.002960783386861
     0.000811348346295    -0.006031219917789    -0.007298282525825
     0.002960783043194    -0.007298281532414    -0.016998647592104
   1  58
     0.000000003866802     0.000000003042984    -0.000000002162967
     0.000000002080430     0.000000005321664     0.000000001519749
    -0.000000001941743     0.000000001960279     0.000000005313240
   1  59
    -0.018477335110751    -0.002969786353451     0.000777743209414
    -0.002969787211872    -0.020577288989374     0.001099894156816
     0.000777743062258     0.001099894423779    -0.002452578268238
   1  60
     0.017564938040228    -0.015328634916105     0.026549981292067
    -0.015328634134847    -0.154453525150260    -0.111830691959287
     0.026549983638194    -0.111830695207756    -0.025322578179418
   1  61
     0.392229299419583    -0.101294795665718    -0.175447745601013
    -0.101294797082482     0.320603041590066     0.124060280325068
    -0.175447744863122     0.124060281422261     0.463855533282961
   1  62
    -0.007924087006002     0.004542484820733     0.007867815315017
     0.004542483758330    -0.016584466293712    -0.000358690353230
     0.007867815882474    -0.000358690384086    -0.016998648817369
   1  63
    -0.125705709084093    -0.065982458626149    -0.114284981090640
    -0.065982462321038    -0.011182879508606    -0.012245337245035
    -0.114284984071523    -0.012245337310949    -0.025322577909683
   1  64
    -0.287337061555546    -0.214977529208045    -0.372352023938918
    -0.214977522750515    -0.439349125253917    -0.526585278218300
    -0.372352019682120    -0.526585289561254    -1.047397531874448
   2   1
    -1.503433684887369    -0.000000015102065    -0.000000053408339
    -0.000000014610385    -0.135324996796442    -0.000000003521082
    -0.000000029174449    -0.000000003834313    -0.135324996318706
   2   2
     3.308910743850088    -0.000000000203654     0.000000117245535
    -0.000000000203654     3.308910744156819     0.000000166099935
     0.000000117245535     0.000000166099935     3.308910743118379
   2   3
    -1.503433684585783    -0.000000015151661    -0.000000057259269
    -0.000000015235699    -0.135324997508730    -0.000000008238858
    -0.000000057335009    -0.000000008440161    -0.135324996185137
   2   4
    -0.015369297473175    -0.000000000872666    -0.000000002097528
    -0.000000000872666     0.048818628662246     0.000000000818579
    -0.000000002097528     0.000000000818579     0.048818627436471
   2   5
    -0.125705709332242     0.131964919686125     0.000000001863918
     0.131964924048824    -0.032392415149441     0.000000002276080
     0.000000000831297     0.000000001246913    -0.004113031346760
   2   6
    -0.287337084045557     0.429955092312153     0.000000011095531
     0.429955091948221    -1.351421598763924    -0.000000056971248
     0.000000010894973    -0.000000056806469    -0.135324996814953
   2   7
     0.392229286355534     0.202589599345820     0.000000024030608
     0.202589599229280     0.535481776638334     0.000000034187715
     0.000000023917586     0.000000034137477     0.248976808810755
   2   8
    -0.007924086827743    -0.009084969301382    -0.000000001891371
    -0.009084969698817    -0.017205739304667    -0.000000003097787
    -0.000000002018779    -0.000000002880335    -0.016377377289243
   2   9
    -0.010464181411959    -0.009983029348477    -0.000000001933845
    -0.009983029568099    -0.014665642206875    -0.000000001908674
    -0.000000001845973    -0.000000001850636    -0.016377378976348
   2  10
     0.041686635265135     0.020172319422831     0.000000001347471
     0.020172318874697    -0.008237305883926    -0.000000001333111
     0.000000000802350    -0.000000000249596     0.048818627029050
   2  11
    -0.010464183360424    -0.009983029379656    -0.000000002943299
    -0.009983029692598    -0.014665642205990    -0.000000002660148
    -0.000000002592041    -0.000000002303129    -0.016377376750411
   2  12
    -0.020061672330776    -0.106353701683602    -0.000000007781259
    -0.106353702231099    -0.095265101139373    -0.000000010847912
    -0.000000003897326    -0.000000005128457     0.055141749053821
   2  13
     0.392229277225617     0.202589596304248     0.000000022321133
     0.202589602992481     0.535481781435228     0.000000031196815
     0.000000018016317     0.000000025543273     0.248976814118214
   2  14
    -0.287337084053304     0.429955092388476     0.000000011064059
     0.429955091991041    -1.351421598843003    -0.000000056990649
     0.000000010936651    -0.000000056773197    -0.135324996756886
   2  15
    -0.125705714996821     0.131964923606546     0.000000001302012
     0.131964923490007    -0.032392415420393     0.000000002058540
     0.000000001188990     0.000000002008303    -0.004113031099639
   2  16
    -0.007924086819997    -0.009084969377704    -0.000000001859898
    -0.009084969741637    -0.017205739225587    -0.000000003078386
    -0.000000002060456    -0.000000002913607    -0.016377377347310
   2  17
    -0.125705712464444    -0.065982463965623     0.114284969360841
    -0.065982467021966    -0.011182878711800     0.012245332690357
     0.114284972510077     0.012245333811618    -0.025322564034423
   2  18
    -0.287337076953399    -0.214977548720280     0.372352014153481
    -0.214977549045637    -0.439349170695086     0.526585281308384
     0.372352005803100     0.526585269753589    -1.047397391947445
   2  19
     0.392229289235585    -0.101294794570012     0.175447744019055
    -0.101294795139095     0.320603042773785    -0.124060274913843
     0.175447751920289    -0.124060280370290     0.463855539813280
   2  20
    -0.007924086631398     0.004542485810483    -0.007867814329026
     0.004542485632636    -0.016584468208943     0.000358690866629
    -0.007867814723829     0.000358690784337    -0.016998648742468
   2  21
    -0.007924086642330     0.004542485757921     0.007867814705127
     0.004542484635446    -0.016584467402215    -0.000358691662358
     0.007867814860792    -0.000358690972365    -0.016998647675885
   2  22
     0.392229293488404    -0.101294796579951    -0.175447737009239
    -0.101294790034354     0.320603038483124     0.124060285415855
    -0.175447740991740     0.124060296238354     0.463855540189345
   2  23
    -0.287337068034519    -0.214977535646905    -0.372352037362295
    -0.214977536157011    -0.439349153529246    -0.526585313620950
    -0.372352037155969    -0.526585313163883    -1.047397539526307
   2  24
    -0.125705710283127    -0.065982464168043    -0.114284986189881
    -0.065982463856100    -0.011182877821674    -0.012245340855231
    -0.114284986825165    -0.012245339457729    -0.025322582502467
   2  25
     0.000000004348951     0.000000001703895    -0.000000002234749
     0.000000000982286     0.000000005938868     0.000000000565383
    -0.000000002881732     0.000000001245755     0.000000003547745
   2  26
    -0.018477332122536     0.000811348650594     0.002960780801462
     0.000811348128002    -0.006031220946843    -0.007298283480353
     0.002960780907096    -0.007298283761423    -0.016998650719404
   2  27
     0.017564937264047    -0.015328638144516     0.026549979610850
    -0.015328636930296    -0.154453521787187    -0.111830694154439
     0.026549981469401    -0.111830697528352    -0.025322581689560
   2  28
    -0.018477334266674    -0.002969785688214     0.000777740574265
    -0.002969786147967    -0.020577290292599     0.001099891622147
     0.000777740492163     0.001099891749445    -0.002452578723308
   2  29
    -0.018477335530422    -0.002969786177233    -0.000777743857770
    -0.002969786802528    -0.020577290098269    -0.001099896470763
    -0.000777743430010    -0.001099895558379    -0.002452579040521
   2  30
     0.017564939328315    -0.015328638193268    -0.026549981181034
    -0.015328636677396    -0.154453531047963     0.111830679538726
    -0.026549983098922     0.111830683028905    -0.025322565060198
   2  31
    -0.018477335690788     0.000811348343972    -0.002960782483520
     0.000811348428086    -0.006031222033199     0.007298283059482
    -0.002960782597974     0.007298282713064    -0.016998649347240
   2  32
     0.000000006083731     0.000000000967554     0.000000001154026
     0.000000000702521     0.000000005297947    -0.000000002306659
     0.000000001824145    -0.000000002009817     0.000000002103190
   2  33
    -0.010464183680143     0.004991515099343    -0.008645557570728
     0.004991515330162    -0.015949442723601    -0.000741203630349
    -0.008645557672267    -0.000741203614636    -0.015093575950977
   2  34
     0.041686636414579    -0.010086159716910     0.017469740334147
    -0.010086159905297     0.034554642880013     0.024705944454538
     0.017469739737888     0.024705944096125     0.006026679612647
   2  35
    -0.010464183325117     0.004991515189696    -0.008645557598488
     0.004991514928455    -0.015949443755871    -0.000741203025722
    -0.008645557545156    -0.000741202862181    -0.015093575583918
   2  36
    -0.020061673149033     0.053176849930030    -0.092105006611909
     0.053176853244564     0.017540036516301     0.065128078128812
    -0.092105008845014     0.065128075452313    -0.057663387176146
   2  37
     0.000000006440839    -0.000000002531850    -0.000000001102228
    -0.000000003057526     0.000000002888605    -0.000000001366818
    -0.000000000693266    -0.000000001196814     0.000000005129540
   2  38
    -0.018477334872413     0.002158437373298     0.002183038228084
     0.002158436562908    -0.007936291499744    -0.008398178122832
     0.002183038308620    -0.008398178379571    -0.015093577661241
   2  39
     0.017564937352163     0.030657276552479     0.000000001195177
     0.030657276121150     0.039242906829766     0.000000001891065
     0.000000001143077     0.000000002222472    -0.219019006319230
   2  40
    -0.018477334625092     0.002158438126382    -0.002183039653716
     0.002158437843034    -0.007936293445220     0.008398176892848
    -0.002183039770622     0.008398176947809    -0.015093575033002
   2  41
    -0.010464183853757     0.004991515128841     0.008645557720323
     0.004991515329560    -0.015949443412238     0.000741203181936
     0.008645557085873     0.000741202628444    -0.015093574731302
   2  42
    -0.020061675747754     0.053176850957771     0.092105009601913
     0.053176850639083     0.017540039204921    -0.065128073900029
     0.092105010054726    -0.065128072964076    -0.057663386892817
   2  43
    -0.010464182959117     0.004991513698622     0.008645556627545
     0.004991513388297    -0.015949442320465     0.000741202432061
     0.008645556681980     0.000741202213623    -0.015093576385674
   2  44
     0.041686636464901    -0.010086159056119    -0.017469740756388
    -0.010086159374243     0.034554644186432    -0.024705945057959
    -0.017469740301297    -0.024705944122172     0.006026672983606
   2  45
     0.017564938896515     0.030657275836903     0.000000003480529
     0.030657276320796     0.039242907616482     0.000000005118017
     0.000000001382186     0.000000001738567    -0.219019011777644
   2  46
    -0.018477334717034     0.002158438443679     0.002183038949936
     0.002158437749477    -0.007936292945249    -0.008398177531717
     0.002183038833089    -0.008398177476309    -0.015093576135966
   2  47
     0.000000004540899    -0.000000002510767    -0.000000001428482
    -0.000000002941776     0.000000002547931    -0.000000001816260
    -0.000000001478274    -0.000000001484797     0.000000005778340
   2  48
    -0.018477334819504     0.002158437206291    -0.002183040114383
     0.002158436601329    -0.007936291787424     0.008398175863868
    -0.002183040390680     0.008398176412596    -0.015093576384266
   2  49
     0.392229289987569    -0.101294797507236     0.175447742697409
    -0.101294804557530     0.320603052094584    -0.124060286031038
     0.175447746226032    -0.124060280283262     0.463855531326543
   2  50
    -0.287337077029046    -0.214977548575082     0.372352014183760
    -0.214977548954966    -0.439349170768328     0.526585281416850
     0.372352005873758     0.526585269850224    -1.047397391724269
   2  51
    -0.125705713215106    -0.065982464958873     0.114284968413989
    -0.065982467197476    -0.011182878470052     0.012245333662631
     0.114284972665583     0.012245332828396    -0.025322565111555
   2  52
    -0.007924086555751     0.004542485665286    -0.007867814359305
     0.004542485541966    -0.016584468135701     0.000358690758163
    -0.007867814794487     0.000358690687702    -0.016998648965645
   2  53
    -0.018477335569492     0.000811348321549    -0.002960782675971
     0.000811347902447    -0.006031220599257     0.007298282052835
    -0.002960782604534     0.007298282159299    -0.016998648153817
   2  54
     0.017564939658044    -0.015328638217029    -0.026549981328776
    -0.015328636814381    -0.154453531337435     0.111830679615523
    -0.026549982786969     0.111830683459792    -0.025322565116622
   2  55
    -0.018477335651686    -0.002969786154512    -0.000777743665349
    -0.002969786276865    -0.020577291532094    -0.001099895464078
    -0.000777743423424    -0.001099895004728    -0.002452580233760
   2  56
     0.000000005754001     0.000000000995062     0.000000001299605
     0.000000000839256     0.000000005587830    -0.000000002383163
     0.000000001512337    -0.000000002440523     0.000000002159202
   2  57
     0.017564937636988    -0.015328633894274     0.026549982055144
    -0.015328637290984    -0.154453524245315    -0.111830697091230
     0.026549981029168    -0.111830692859378    -0.025322579267077
   2  58
    -0.018477334358678     0.000811348977251     0.002960780098456
     0.000811348517498    -0.006031220507542    -0.007298284645810
     0.002960780016353    -0.007298284518513    -0.016998649112255
   2  59
     0.000000003976009     0.000000000850658    -0.000000002717781
     0.000000000397198     0.000000006660489     0.000000000955293
    -0.000000002987542     0.000000001128808     0.000000002861770
   2  60
    -0.018477332030558    -0.002969786055028     0.000777741254197
    -0.002969786537485    -0.020577290965094     0.001099892653065
     0.000777741382928     0.001099892910166    -0.002452580097519
   2  61
    -0.287337061034813    -0.214977526440325    -0.372352017795274
    -0.214977527347352    -0.439349138625452    -0.526585286575691
    -0.372352025514361    -0.526585297346263    -1.047397518634173
   2  62
     0.392229293646216    -0.101294796378572    -0.175447737055347
    -0.101294790402200     0.320603038761305     0.124060285619131
    -0.175447740960363     0.124060296263334     0.463855539750727
   2  63
    -0.007924086828566     0.004542485981235     0.007867813604580
     0.004542485465363    -0.016584468963743    -0.000358692584314
     0.007867813793143    -0.000358692137985    -0.016998648412921
   2  64
    -0.125705710446685    -0.065982464363504    -0.114284986137723
    -0.065982463480984    -0.011182878097813    -0.012245341061808
    -0.114284986852347    -0.012245339485872    -0.025322582066209
   3   1
    -0.015369298060929    -0.000000000135759    -0.000000001121506
     0.000000000450559     0.048818627550363     0.000000001223851
    -0.000000000197872     0.000000001111924     0.048818630593341
   3   2
    -1.503433684585783    -0.000000015235699    -0.000000057335009
    -0.000000015151661    -0.135324997508730    -0.000000008440161
    -0.000000057259269    -0.000000008238858    -0.135324996185137
   3   3
     3.308910743560296     0.000000000482161     0.000000117673269
     0.000000000482161     3.308910742330225     0.000000166455322
     0.000000117673269     0.000000166455322     3.308910746411686
   3   4
    -1.503433684585783    -0.000000015235699    -0.000000057335009
    -0.000000015151661    -0.135324997508730    -0.000000008440161
    -0.000000057259269    -0.000000008238858    -0.135324996185137
   3   5
    -0.007924084648606    -0.009084969338655    -0.000000000884924
    -0.009084969521059    -0.017205739969288    -0.000000001940375
    -0.000000001220507    -0.000000001850588    -0.016377377771348
   3   6
    -0.125705715973005     0.131964924455718     0.000000001351004
     0.131964924175824    -0.032392416852742     0.000000001447629
     0.000000001226186     0.000000001813712    -0.004113027898579
   3   7
    -0.287337083359163     0.429955092064758     0.000000011398532
     0.429955092032257    -1.351421599158167    -0.000000056206252
     0.000000011361250    -0.000000056055186    -0.135324996722703
   3   8
     0.392229285371604     0.202589600271314     0.000000024048128
     0.202589599957917     0.535481775126906     0.000000033557403
     0.000000023996461     0.000000033976158     0.248976812069881
   3   9
    -0.020061670668759    -0.106353698800424    -0.000000007969639
    -0.106353702093948    -0.095265102718846    -0.000000010767648
    -0.000000005856030    -0.000000007715217     0.055141752065333
   3  10
    -0.010464183582826    -0.009983029227496    -0.000000000752923
    -0.009983029691484    -0.014665643544328    -0.000000000927912
    -0.000000000692147    -0.000000000592185    -0.016377377124915
   3  11
     0.041686635197595     0.020172319872368     0.000000000678113
     0.020172319643464    -0.008237306372190    -0.000000001258011
     0.000000001105111    -0.000000000699688     0.048818630696863
   3  12
    -0.010464183582826    -0.009983029227496    -0.000000000752923
    -0.009983029691484    -0.014665643544328    -0.000000000927912
    -0.000000000692147    -0.000000000592185    -0.016377377124915
   3  13
    -0.007924084648606    -0.009084969338655    -0.000000000884924
    -0.009084969521059    -0.017205739969288    -0.000000001940375
    -0.000000001220507    -0.000000001850588    -0.016377377771348
   3  14
     0.392229285371604     0.202589600271314     0.000000024048128
     0.202589599957917     0.535481775126906     0.000000033557403
     0.000000023996461     0.000000033976158     0.248976812069881
   3  15
    -0.287337083359163     0.429955092064758     0.000000011398532
     0.429955092032257    -1.351421599158167    -0.000000056206252