192  
2    

1    
  0.0048507125007267  -0.0048507125007267   0.0072760687510900
  -0.0090015479    0.0090015479   -0.0135357542
   0.0012290678   -0.0012290678   -0.0006616906
  -0.0014609548    0.0003905398   -0.0008815243
   0.0023836320   -0.0009259568    0.0014608192
   0.0001220229   -0.0001220229    0.0005915998
   0.0009551556   -0.0009551556    0.0034021852
  -0.0003885496   -0.0016568013    0.0011953496
   0.0009274369   -0.0023023873    0.0014633148
  -0.0009684983    0.0009693187   -0.0006588285
  -0.0000152934   -0.0007279430   -0.0002098082
  -0.0003905398    0.0014609548   -0.0008815243
   0.0009259568   -0.0023836320    0.0014608192
   0.0000130183    0.0001090572    0.0003103168
  -0.0000133135   -0.0007098158    0.0001106486
   0.0016568013    0.0003885496    0.0011953496
   0.0023023873   -0.0009274369    0.0014633148
  -0.0001553842    0.0001553842   -0.0001495350
   0.0000618774   -0.0000618774   -0.0002388913
  -0.0001407610    0.0001690309   -0.0001614563
   0.0002618117    0.0000493100    0.0002106688
  -0.0000162731    0.0000162731    0.0000940193
   0.0001290860   -0.0001290860    0.0000536962
  -0.0000008605    0.0000949724   -0.0000193720
  -0.0000502032   -0.0002606762    0.0002107126
  -0.0009693187    0.0009684983   -0.0006588285
   0.0007279430    0.0000152934   -0.0002098082
  -0.0001690309    0.0001407610   -0.0001614563
  -0.0000493100   -0.0002618117    0.0002106688
  -0.0001090572   -0.0000130183    0.0003103168
   0.0007098158    0.0000133135    0.0001106486
  -0.0000949724    0.0000008605   -0.0000193720
   0.0002606762    0.0000502032    0.0002107126
  -0.0001195564    0.0001195564    0.0012816742
   0.0000885719   -0.0000885719    0.0003083347
   0.0016719430    0.0003934071    0.0012077020
  -0.0001748135   -0.0000907766   -0.0004666077
  -0.0006039954    0.0006039954   -0.0003713105
   0.0009526512   -0.0009526512    0.0036080011
  -0.0003912893    0.0014620610   -0.0008832357
   0.0000904065   -0.0003493905   -0.0003707999
  -0.0001713715    0.0000062231    0.0001978949
  -0.0000007603   -0.0001290990    0.0001969571
  -0.0003934071   -0.0016719430    0.0012077020
   0.0000907766    0.0001748135   -0.0004666077
   0.0000132625    0.0002854599   -0.0000603145
   0.0007090355    0.0000118929    0.0001132948
  -0.0014620610    0.0003912893   -0.0008832357
   0.0003493905   -0.0000904065   -0.0003707999
  -0.0000648432    0.0000648432    0.0001341630
   0.0000495385   -0.0000495385    0.0001760932
  -0.0000950612    0.0000017516   -0.0000199326
   0.0000428595    0.0000028606   -0.0001657807
  -0.0000251906    0.0000251906    0.0000803643
   0.0001292558   -0.0001292558    0.0000523805
  -0.0001683707    0.0001406195   -0.0001619477
   0.0001054098   -0.0000647070   -0.0000876004
  -0.0000062231    0.0001713715    0.0001978949
   0.0001290990    0.0000007603    0.0001969571
  -0.0000017516    0.0000950612   -0.0000199326
  -0.0000028606   -0.0000428595   -0.0001657807
  -0.0002854599   -0.0000132625   -0.0000603145
  -0.0000118929   -0.0007090355    0.0001132948
  -0.0001406195    0.0001683707   -0.0001619477
   0.0000647070   -0.0001054098   -0.0000876004
  -0.0001183818    0.0001183818    0.0012878171
  -0.0000758637    0.0000758637    0.0000898403
  -0.0000324787    0.0001261619    0.0003710068
   0.0003474231   -0.0000906322   -0.0003707952
  -0.0000243903    0.0000243903   -0.0003279665
   0.0001205062   -0.0001205062   -0.0003103127
  -0.0001258782    0.0000336522    0.0003720165
   0.0000902475    0.0001725228   -0.0004655376
  -0.0000069394    0.0001706855    0.0001992633
  -0.0000012218    0.0000576143    0.0000740565
  -0.0001261619    0.0000324787    0.0003710068
   0.0000906322   -0.0003474231   -0.0003707952
   0.0000328562    0.0000476170   -0.0003359726
   0.0001160754   -0.0001179438   -0.0003275361
  -0.0000336522    0.0001258782    0.0003720165
  -0.0001725228   -0.0000902475   -0.0004655376
  -0.0000651023    0.0000651023    0.0001344500
  -0.0000390725    0.0000390725    0.0000583771
  -0.0000798980    0.0000404019    0.0002980037
   0.0000655741   -0.0001053308   -0.0000883979
  -0.0000021479    0.0000021479   -0.0001971289
   0.0000771047   -0.0000771047   -0.0002614863
  -0.0000405956    0.0000796148    0.0002976391
  -0.0000028542   -0.0000416837   -0.0001661799
  -0.0001706855    0.0000069394    0.0001992633
  -0.0000576143    0.0000012218    0.0000740565
  -0.0000404019    0.0000798980    0.0002980037
   0.0001053308   -0.0000655741   -0.0000883979
  -0.0000476170   -0.0000328562   -0.0003359726
   0.0001179438   -0.0001160754   -0.0003275361
  -0.0000796148    0.0000405956    0.0002976391
   0.0000416837    0.0000028542   -0.0001661799
   0.0002676986   -0.0002676986   -0.0001495332
   0.0012209082   -0.0012209082   -0.0006560942
   0.0001725393   -0.0003114297   -0.0000499069
  -0.0003178991    0.0003766895    0.0002105107
  -0.0005991054    0.0005991054   -0.0003675101
  -0.0002131248    0.0002131248    0.0000539265
   0.0001436155   -0.0002175979   -0.0001310523
  -0.0003760803    0.0003183830    0.0002108567
   0.0001863856   -0.0001846997   -0.0002386892
   0.0007267435    0.0000142020   -0.0002086641
   0.0003114297   -0.0001725393   -0.0000499069
  -0.0003766895    0.0003178991    0.0002105107
  -0.0002852733   -0.0000125680   -0.0000596226
  -0.0001676569    0.0001597426    0.0000865428
   0.0002175979   -0.0001436155   -0.0001310523
  -0.0003183830    0.0003760803    0.0002108567
   0.0002486346   -0.0002486346   -0.0001166639
   0.0000624679   -0.0000624679   -0.0002384902
   0.0001497544   -0.0000721980   -0.0000428819
  -0.0001110652    0.0001077484    0.0001726111
  -0.0000248452    0.0000248452    0.0000787636
  -0.0001422578    0.0001422578    0.0000693749
   0.0000717429   -0.0001084126   -0.0000692058
  -0.0001069462    0.0001092185    0.0001733657
   0.0001846997   -0.0001863856   -0.0002386892
  -0.0000142020   -0.0007267435   -0.0002086641
   0.0000721980   -0.0001497544   -0.0000428819
  -0.0001077484    0.0001110652    0.0001726111
   0.0000125680    0.0002852733   -0.0000596226
  -0.0001597426    0.0001676569    0.0000865428
   0.0001084126   -0.0000717429   -0.0000692058
  -0.0001092185    0.0001069462    0.0001733657
   0.0001467621   -0.0001467621    0.0001343754
  -0.0000762945    0.0000762945    0.0000880813
   0.0002184367   -0.0001450421   -0.0001314587
  -0.0001168608    0.0000634643   -0.0000935408
   0.0001190305   -0.0001190305    0.0005950107
  -0.0002136193    0.0002136193    0.0000521590
   0.0003120519   -0.0001721508   -0.0000502874
  -0.0001717810    0.0000945373   -0.0001601691
   0.0001108783   -0.0001997316    0.0001170779
  -0.0000573386    0.0000007684    0.0000725019
   0.0001450421   -0.0002184367   -0.0001314587
  -0.0000634643    0.0001168608   -0.0000935408
  -0.0001096832   -0.0000128265    0.0003099186
  -0.0001594532    0.0001679960    0.0000874103
   0.0001721508   -0.0003120519   -0.0000502874
  -0.0000945373    0.0001717810   -0.0001601691
   0.0000940726   -0.0000940726    0.0000756715
  -0.0000388654    0.0000388654    0.0000577439
   0.0001090739   -0.0000722857   -0.0000695985
  -0.0000364013    0.0000533581   -0.0000507676
  -0.0000172740    0.0000172740    0.0000947744
  -0.0001425038    0.0001425038    0.0000695800
   0.0000718319   -0.0001481112   -0.0000423372
  -0.0000530809    0.0001957709   -0.0001571822
   0.0001997316   -0.0001108783    0.0001170779
  -0.0000007684    0.0000573386    0.0000725019
   0.0000722857   -0.0001090739   -0.0000695985
  -0.0000533581    0.0000364013   -0.0000507676
   0.0000128265    0.0001096832    0.0003099186
  -0.0001679960    0.0001594532    0.0000874103
   0.0001481112   -0.0000718319   -0.0000423372
  -0.0001957709    0.0000530809   -0.0001571822
   0.0001458519   -0.0001458519    0.0001342283
   0.0000881678   -0.0000881678    0.0003080956
   0.0000804530   -0.0001195140    0.0002974404
  -0.0000936459    0.0001712419   -0.0001601322
  -0.0000261919    0.0000261919   -0.0003270819
  -0.0001412245    0.0001412245   -0.0002614873
   0.0001197905   -0.0000803361    0.0002982041
  -0.0000630987    0.0001170701   -0.0000941228
   0.0001989445   -0.0001106426    0.0001171463
   0.0001302448    0.0000012281    0.0001990969
   0.0001195140   -0.0000804530    0.0002974404
  -0.0001712419    0.0000936459   -0.0001601322
  -0.0000472649   -0.0000325397   -0.0003351274
  -0.0001048390    0.0001050541   -0.0001969652
   0.0000803361   -0.0001197905    0.0002982041
  -0.0001170701    0.0000630987   -0.0000941228
   0.0000938656   -0.0000938656    0.0000758440
   0.0000496771   -0.0000496771    0.0001762328
   0.0000763915   -0.0000439098    0.0001771231
  -0.0001952663    0.0000532696   -0.0001571553
  -0.0000022263    0.0000022263   -0.0001968008
  -0.0000727281    0.0000727281   -0.0001394819
   0.0000437177   -0.0000765117    0.0001774115
  -0.0000529932    0.0000360912   -0.0000512074
   0.0001106426   -0.0001989445    0.0001171463
  -0.0000012281   -0.0001302448    0.0001990969
   0.0000439098   -0.0000763915    0.0001771231
  -0.0000532696    0.0001952663   -0.0001571553
   0.0000325397    0.0000472649   -0.0003351274
  -0.0001050541    0.0001048390   -0.0001969652
   0.0000765117   -0.0000437177    0.0001774115
  -0.0000360912    0.0000529932   -0.0000512074

4    
  0.0048507125007267  -0.0048507125007267   0.0072760687510900
   0.0022920027   -0.0009294540    0.0014663342
   0.0009238772   -0.0023943415    0.0014576938
   0.0009581972   -0.0009581972    0.0033927995
  -0.0115511372    0.0115511372   -0.0173603104
  -0.0005310114    0.0010339831   -0.0001606670
   0.0022533482    0.0005284754    0.0020206282
  -0.0006005661    0.0006005661   -0.0003686839
   0.0017924907   -0.0017924907   -0.0008661603
   0.0000758452   -0.0001349179    0.0002104787
   0.0001347966   -0.0000774168    0.0002109044
  -0.0000147787   -0.0007091679    0.0001101902
  -0.0005045268    0.0005142010   -0.0008697261
  -0.0000171429    0.0000870738   -0.0000718307
   0.0000471269    0.0001860961   -0.0000962373
  -0.0004738124   -0.0000127190    0.0000653837
   0.0002225012    0.0000761996   -0.0003016512
   0.0001349179   -0.0000758452    0.0002104787
   0.0000774168   -0.0001347966    0.0002109044
   0.0001290247   -0.0001290247    0.0000526674
  -0.0001250220    0.0001250220   -0.0001825427
  -0.0000870738    0.0000171429   -0.0000718307
  -0.0001860961   -0.0000471269   -0.0000962373
  -0.0000266140    0.0000266140    0.0000814525
   0.0000691351   -0.0000691351   -0.0002373284
   0.0009294540   -0.0022920027    0.0014663342
   0.0023943415   -0.0009238772    0.0014576938
   0.0007091679    0.0000147787    0.0001101902
  -0.0005142010    0.0005045268   -0.0008697261
  -0.0010339831    0.0005310114   -0.0001606670
  -0.0005284754   -0.0022533482    0.0020206282
   0.0000127190    0.0004738124    0.0000653837
  -0.0000761996   -0.0002225012   -0.0003016512
   0.0001578076   -0.0000905826   -0.0002434185
   0.0000907240   -0.0000175557   -0.0005937258
   0.0009495472   -0.0009495472    0.0036179388
  -0.0001772731    0.0001772731    0.0001555311
  -0.0005347595   -0.0022797812    0.0020463173
  -0.0010269719    0.0005320467   -0.0001684490
   0.0001179403   -0.0001179403    0.0005936225
   0.0000175258   -0.0000175258    0.0001905162
   0.0001008865   -0.0000626981   -0.0000830776
   0.0000540718    0.0000072785   -0.0001702597
   0.0007095130    0.0000103303    0.0001137709
  -0.0002225029    0.0000923128    0.0002770065
  -0.0001881829   -0.0000450675   -0.0000978360
  -0.0000859756    0.0000175448   -0.0000726809
   0.0000792475   -0.0000126106    0.0001841368
  -0.0000636801    0.0000119218    0.0001176306
   0.0000626981   -0.0001008865   -0.0000830776
  -0.0000072785   -0.0000540718   -0.0001702597
   0.0001293163   -0.0001293163    0.0000534078
  -0.0000459446    0.0000459446    0.0001143573
   0.0000450675    0.0001881829   -0.0000978360
  -0.0000175448    0.0000859756   -0.0000726809
  -0.0000146154    0.0000146154    0.0000931884
  -0.0000388654    0.0000388654    0.0000577439
   0.0000905826   -0.0001578076   -0.0002434185
   0.0000175557   -0.0000907240   -0.0005937258
  -0.0000103303   -0.0007095130    0.0001137709
  -0.0000923128    0.0002225029    0.0002770065
   0.0022797812    0.0005347595    0.0020463173
  -0.0005320467    0.0010269719   -0.0001684490
   0.0000126106   -0.0000792475    0.0001841368
  -0.0000119218    0.0000636801    0.0001176306
   0.0000143237   -0.0000903210   -0.0005912353
   0.0000904580   -0.0001598113   -0.0002454226
   0.0001204813   -0.0001204813   -0.0003103782
  -0.0001774592    0.0001774592    0.0001550475
  -0.0001253728    0.0000313194    0.0003165932
  -0.0000329756    0.0001251092    0.0003139430
  -0.0000253431    0.0000253431   -0.0003291978
   0.0001461084   -0.0001461084    0.0003646850
  -0.0000078568   -0.0000540163   -0.0001711210
   0.0000628778   -0.0001004400   -0.0000835068
   0.0001170499   -0.0001169693   -0.0003275124
  -0.0000912441    0.0002203812    0.0002797525
  -0.0000798980    0.0000404019    0.0002980037
  -0.0000405956    0.0000796148    0.0002976391
  -0.0000472649   -0.0000325397   -0.0003351274
   0.0002529696    0.0000114858    0.0003286181
   0.0000540163    0.0000078568   -0.0001711210
   0.0001004400   -0.0000628778   -0.0000835068
   0.0000771047   -0.0000771047   -0.0002614863
  -0.0000453719    0.0000453719    0.0001144621
  -0.0000404019    0.0000798980    0.0002980037
  -0.0000796148    0.0000405956    0.0002976391
  -0.0000022263    0.0000022263   -0.0001968008
   0.0000496771   -0.0000496771    0.0001762328
   0.0000903210   -0.0000143237   -0.0005912353
   0.0001598113   -0.0000904580   -0.0002454226
   0.0001169693   -0.0001170499   -0.0003275124
  -0.0002203812    0.0000912441    0.0002797525
  -0.0000313194    0.0001253728    0.0003165932
  -0.0001251092    0.0000329756    0.0003139430
   0.0000325397    0.0000472649   -0.0003351274
  -0.0000114858   -0.0002529696    0.0003286181
  -0.0001908477    0.0005032818    0.0002107445
  -0.0005022832    0.0001926554    0.0002106437
  -0.0002130432    0.0002130432    0.0000527738
   0.0004718095   -0.0004718095   -0.0001825517
   0.0003353903   -0.0002717915    0.0000158850
   0.0001017672   -0.0002019330   -0.0001858898
   0.0001230578   -0.0001230578    0.0005929473
   0.0018047364   -0.0018047364   -0.0008734687
  -0.0001074132    0.0001095329    0.0001726652
  -0.0001107578    0.0001072895    0.0001732995
  -0.0001700563    0.0001581107    0.0000873617
   0.0001429792   -0.0001426864   -0.0002375215
   0.0001112194   -0.0000725724   -0.0000544981
   0.0000721317   -0.0001076376   -0.0000563937
   0.0000132344   -0.0000811903    0.0001833257
  -0.0000765609   -0.0002275588   -0.0003016992
  -0.0001095329    0.0001074132    0.0001726652
  -0.0001072895    0.0001107578    0.0001732995
  -0.0001422578    0.0001422578    0.0000693749
  -0.0002464898    0.0002464898   -0.0000972296
   0.0000725724   -0.0001112194   -0.0000544981
   0.0001076376   -0.0000721317   -0.0000563937
  -0.0000160557    0.0000160557    0.0000917689
   0.0000674935   -0.0000674935   -0.0002377171
  -0.0005032818    0.0001908477    0.0002107445
  -0.0001926554    0.0005022832    0.0002106437
  -0.0001581107    0.0001700563    0.0000873617
   0.0001426864   -0.0001429792   -0.0002375215
   0.0002717915   -0.0003353903    0.0000158850
   0.0002019330   -0.0001017672   -0.0001858898
   0.0000811903   -0.0000132344    0.0001833257
   0.0002275588    0.0000765609   -0.0003016992
  -0.0001059419    0.0001668785   -0.0001553074
  -0.0000586398    0.0001148915   -0.0000984672
  -0.0002137180    0.0002137180    0.0000533221
   0.0001010063   -0.0001010063    0.0001149091
   0.0002047171   -0.0001036555   -0.0001850138
   0.0002732138   -0.0003365209    0.0000164262
  -0.0006020706    0.0006020706   -0.0003698089
   0.0001475346   -0.0001475346    0.0003649796
  -0.0000530809    0.0001957709   -0.0001571822
  -0.0000364013    0.0000533581   -0.0000507676
  -0.0001581955    0.0001685108    0.0000866005
   0.0001108783   -0.0001997316    0.0001170779
   0.0001090003   -0.0000726754   -0.0000566017
   0.0000722357   -0.0001125350   -0.0000537750
   0.0000131309    0.0004761115    0.0000674531
  -0.0000125199   -0.0002538674    0.0003301437
  -0.0001957709    0.0000530809   -0.0001571822
  -0.0000533581    0.0000364013   -0.0000507676
  -0.0001425038    0.0001425038    0.0000695800
   0.0000940726   -0.0000940726    0.0000756715
   0.0000726754   -0.0001090003   -0.0000566017
   0.0001125350   -0.0000722357   -0.0000537750
  -0.0000262911    0.0000262911    0.0000815110
   0.0000495385   -0.0000495385    0.0001760932
  -0.0001668785    0.0001059419   -0.0001553074
  -0.0001148915    0.0000586398   -0.0000984672
  -0.0001685108    0.0001581955    0.0000866005
   0.0001997316   -0.0001108783    0.0001170779
   0.0001036555   -0.0002047171   -0.0001850138
   0.0003365209   -0.0002732138    0.0000164262
  -0.0004761115   -0.0000131309    0.0000674531
   0.0002538674    0.0000125199    0.0003301437
  -0.0001143339    0.0000585101   -0.0000986095
  -0.0001667535    0.0001057741   -0.0001556026
  -0.0001412245    0.0001412245   -0.0002614873
   0.0000999429   -0.0000999429    0.0001139232
   0.0001195140   -0.0000804530    0.0002974404
   0.0000803361   -0.0001197905    0.0002982041
  -0.0000252308    0.0000252308   -0.0003258522
   0.0000167975   -0.0000167975    0.0001933556
  -0.0000529932    0.0000360912   -0.0000512074
  -0.0001952663    0.0000532696   -0.0001571553
  -0.0001048390    0.0001050541   -0.0001969652
   0.0001989445   -0.0001106426    0.0001171463
   0.0000763915   -0.0000439098    0.0001771231
   0.0000437177   -0.0000765117    0.0001774115
   0.0000328562    0.0000476170   -0.0003359726
  -0.0000120748    0.0000642950    0.0001179033
  -0.0000360912    0.0000529932   -0.0000512074
  -0.0000532696    0.0001952663   -0.0001571553
  -0.0000727281    0.0000727281   -0.0001394819
   0.0000938656   -0.0000938656    0.0000758440
   0.0000439098   -0.0000763915    0.0001771231
   0.0000765117   -0.0000437177    0.0001774115
  -0.0000021479    0.0000021479   -0.0001971289
  -0.0000390725    0.0000390725    0.0000583771
  -0.0000585101    0.0001143339   -0.0000986095
  -0.0001057741    0.0001667535   -0.0001556026
  -0.0001050541    0.0001048390   -0.0001969652
   0.0001106426   -0.0001989445    0.0001171463
   0.0000804530   -0.0001195140    0.0002974404
   0.0001197905   -0.0000803361    0.0002982041
  -0.0000476170   -0.0000328562   -0.0003359726
  -0.0000642950    0.0000120748    0.0001179033