192  
2    

1    
  0.0048507125007267  -0.0048507125007267   0.0072760687510900
  -0.0093608960    0.0093608960   -0.0140736090
   0.0012424792   -0.0012424792   -0.0006560130
  -0.0015588832    0.0003868632   -0.0009710081
   0.0023158408   -0.0011371540    0.0017775736
   0.0000886732   -0.0000886732    0.0005683401
   0.0011612930   -0.0011612930    0.0033052403
  -0.0003847483   -0.0017054085    0.0012070217
   0.0011345993   -0.0022282256    0.0017740192
  -0.0010440719    0.0010442260   -0.0006532299
  -0.0000113709   -0.0007746171   -0.0002039153
  -0.0003868632    0.0015588832   -0.0009710081
   0.0011371540   -0.0023158408    0.0017775736
   0.0000408773    0.0002329961    0.0003654613
  -0.0000685646   -0.0007216591    0.0000438556
   0.0017054085    0.0003847483    0.0012070217
   0.0022282256   -0.0011345993    0.0017740192
  -0.0001575857    0.0001575857   -0.0000806173
   0.0000610270   -0.0000610270   -0.0002342349
  -0.0001266645    0.0000940182   -0.0001905682
   0.0003012902    0.0001646685    0.0002524780
  -0.0000254510    0.0000254510    0.0001409493
   0.0001352093   -0.0001352093    0.0001678009
   0.0000681031    0.0001989768   -0.0001313447
  -0.0001639362   -0.0003013345    0.0002521909
  -0.0010442260    0.0010440719   -0.0006532299
   0.0007746171    0.0000113709   -0.0002039153
  -0.0000940182    0.0001266645   -0.0001905682
  -0.0001646685   -0.0003012902    0.0002524780
  -0.0002329961   -0.0000408773    0.0003654613
   0.0007216591    0.0000685646    0.0000438556
  -0.0001989768   -0.0000681031   -0.0001313447
   0.0003013345    0.0001639362    0.0002521909
  -0.0001084952    0.0001084952    0.0014800844
   0.0000768138   -0.0000768138    0.0004094775
   0.0017063508    0.0003896515    0.0012039507
  -0.0001553352   -0.0001187681   -0.0005944251
  -0.0007028586    0.0007028586   -0.0004811770
   0.0011648369   -0.0011648369    0.0034918493
  -0.0003876223    0.0015611812   -0.0009727512
   0.0001183468   -0.0003931850   -0.0005334065
  -0.0002542023    0.0000967956    0.0003023693
   0.0000222621   -0.0001174380    0.0001860324
  -0.0003896515   -0.0017063508    0.0012039507
   0.0001187681    0.0001553352   -0.0005944251
   0.0000411961    0.0003562632   -0.0000209543
   0.0007191656    0.0000674536    0.0000470943
  -0.0015611812    0.0003876223   -0.0009727512
   0.0003931850   -0.0001183468   -0.0005334065
  -0.0003194849    0.0003194849    0.0000939651
   0.0000495385   -0.0000495385    0.0001760932
  -0.0001989396   -0.0000662189   -0.0001327882
   0.0000798720   -0.0000023484   -0.0001592733
  -0.0000073286    0.0000073286    0.0000744373
   0.0001349859   -0.0001349859    0.0001686686
  -0.0000930280    0.0001270237   -0.0001916868
   0.0000921157   -0.0001038455   -0.0000672771
  -0.0000967956    0.0002542023    0.0003023693
   0.0001174380   -0.0000222621    0.0001860324
   0.0000662189    0.0001989396   -0.0001327882
   0.0000023484   -0.0000798720   -0.0001592733
  -0.0003562632   -0.0000411961   -0.0000209543
  -0.0000674536   -0.0007191656    0.0000470943
  -0.0001270237    0.0000930280   -0.0001916868
   0.0001038455   -0.0000921157   -0.0000672771
  -0.0001059995    0.0001059995    0.0014393620
  -0.0000811064    0.0000811064    0.0001984975
  -0.0000349794    0.0001230570    0.0002926139
   0.0003925404   -0.0001182183   -0.0005334697
   0.0000010147   -0.0000010147   -0.0003197700
   0.0001820666   -0.0001820666   -0.0003219072
  -0.0001227800    0.0000342415    0.0002918424
   0.0001177914    0.0001559122   -0.0005895762
  -0.0000961557    0.0002542422    0.0003034807
   0.0000217410    0.0000594971    0.0000718689
  -0.0001230570    0.0000349794    0.0002926139
   0.0001182183   -0.0003925404   -0.0005334697
   0.0000328562    0.0000476170   -0.0003359726
   0.0001180690   -0.0001224513   -0.0003196464
  -0.0000342415    0.0001227800    0.0002918424
  -0.0001559122   -0.0001177914   -0.0005895762
  -0.0003189369    0.0003189369    0.0000964897
  -0.0000390725    0.0000390725    0.0000583771
  -0.0000798980    0.0000404019    0.0002980037
   0.0001038055   -0.0000917002   -0.0000669793
  -0.0000021479    0.0000021479   -0.0001971289
   0.0000771047   -0.0000771047   -0.0002614863
  -0.0000405956    0.0000796148    0.0002976391
   0.0000025606   -0.0000786357   -0.0001591011
  -0.0002542422    0.0000961557    0.0003034807
  -0.0000594971   -0.0000217410    0.0000718689
  -0.0000404019    0.0000798980    0.0002980037
   0.0000917002   -0.0001038055   -0.0000669793
  -0.0000476170   -0.0000328562   -0.0003359726
   0.0001224513   -0.0001180690   -0.0003196464
  -0.0000796148    0.0000405956    0.0002976391
   0.0000786357   -0.0000025606   -0.0001591011
   0.0002528690   -0.0002528690   -0.0000806254
   0.0012439156   -0.0012439156   -0.0006503611
   0.0001819696   -0.0003746184   -0.0000835828
  -0.0002965804    0.0004524464    0.0002519234
  -0.0006991313    0.0006991313   -0.0004787670
  -0.0001823141    0.0001823141    0.0001682703
   0.0002136320   -0.0001088369   -0.0002387907
  -0.0004560278    0.0002948546    0.0002527404
   0.0001322170   -0.0001318559   -0.0002340376
   0.0007695276    0.0000095814   -0.0002017244
   0.0003746184   -0.0001819696   -0.0000835828
  -0.0004524464    0.0002965804    0.0002519234
  -0.0003517983   -0.0000401642   -0.0000228970
  -0.0001398250    0.0001572109    0.0001062455
   0.0001088369   -0.0002136320   -0.0002387907
  -0.0002948546    0.0004560278    0.0002527404
   0.0004077359   -0.0004077359   -0.0000721794
   0.0000615320   -0.0000615320   -0.0002338418
   0.0001031365   -0.0000737429   -0.0000569988
  -0.0001104196    0.0000766023    0.0002193303
  -0.0000086185    0.0000086185    0.0000713796
  -0.0001422578    0.0001422578    0.0000693749
   0.0000732943   -0.0001012830   -0.0000570595
  -0.0000765172    0.0001175981    0.0002190092
   0.0001318559   -0.0001322170   -0.0002340376
  -0.0000095814   -0.0007695276   -0.0002017244
   0.0000737429   -0.0001031365   -0.0000569988
  -0.0000766023    0.0001104196    0.0002193303
   0.0000401642    0.0003517983   -0.0000228970
  -0.0001572109    0.0001398250    0.0001062455
   0.0001012830   -0.0000732943   -0.0000570595
  -0.0001175981    0.0000765172    0.0002190092
   0.0003481024   -0.0003481024    0.0000939189
  -0.0000803953    0.0000803953    0.0001970602
   0.0001103880   -0.0002164293   -0.0002396157
  -0.0000790972    0.0000499783   -0.0000996702
   0.0000858795   -0.0000858795    0.0005738038
  -0.0001825095    0.0001825095    0.0001682111
   0.0003767976   -0.0001814903   -0.0000843908
  -0.0001398219    0.0000542385   -0.0001269766
   0.0001108783   -0.0001997316    0.0001170779
  -0.0000545196   -0.0000222160    0.0000682158
   0.0002164293   -0.0001103880   -0.0002396157
  -0.0000499783    0.0000790972   -0.0000996702
  -0.0002331914   -0.0000404883    0.0003661530
  -0.0001582332    0.0001390323    0.0001086909
   0.0001814903   -0.0003767976   -0.0000843908
  -0.0000542385    0.0001398219   -0.0001269766
   0.0000940726   -0.0000940726    0.0000756715
  -0.0000388654    0.0000388654    0.0000577439
   0.0001028189   -0.0000738361   -0.0000577625
  -0.0000364013    0.0000533581   -0.0000507676
  -0.0000270503    0.0000270503    0.0001431147
  -0.0001425038    0.0001425038    0.0000695800
   0.0000733880   -0.0001024000   -0.0000568420
  -0.0000530809    0.0001957709   -0.0001571822
   0.0001997316   -0.0001108783    0.0001170779
   0.0000222160    0.0000545196    0.0000682158
   0.0000738361   -0.0001028189   -0.0000577625
  -0.0000533581    0.0000364013   -0.0000507676
   0.0000404883    0.0002331914    0.0003661530
  -0.0001390323    0.0001582332    0.0001086909
   0.0001024000   -0.0000733880   -0.0000568420
  -0.0001957709    0.0000530809   -0.0001571822
   0.0003487642   -0.0003487642    0.0000965192
   0.0000771857   -0.0000771857    0.0004066525
   0.0000804530   -0.0001195140    0.0002974404
  -0.0000543055    0.0001393916   -0.0001265521
  -0.0000034660    0.0000034660   -0.0003194944
  -0.0001412245    0.0001412245   -0.0002614873
   0.0001197905   -0.0000803361    0.0002982041
  -0.0000503267    0.0000786030   -0.0000994348
   0.0001989445   -0.0001106426    0.0001171463
   0.0001239088   -0.0000216866    0.0001908938
   0.0001195140   -0.0000804530    0.0002974404
  -0.0001393916    0.0000543055   -0.0001265521
  -0.0000472649   -0.0000325397   -0.0003351274
  -0.0001048390    0.0001050541   -0.0001969652
   0.0000803361   -0.0001197905    0.0002982041
  -0.0000786030    0.0000503267   -0.0000994348
   0.0000938656   -0.0000938656    0.0000758440
   0.0000496771   -0.0000496771    0.0001762328
   0.0000763915   -0.0000439098    0.0001771231
  -0.0001952663    0.0000532696   -0.0001571553
  -0.0000022263    0.0000022263   -0.0001968008
  -0.0000727281    0.0000727281   -0.0001394819
   0.0000437177   -0.0000765117    0.0001774115
  -0.0000529932    0.0000360912   -0.0000512074
   0.0001106426   -0.0001989445    0.0001171463
   0.0000216866   -0.0001239088    0.0001908938
   0.0000439098   -0.0000763915    0.0001771231
  -0.0000532696    0.0001952663   -0.0001571553
   0.0000325397    0.0000472649   -0.0003351274
  -0.0001050541    0.0001048390   -0.0001969652
   0.0000765117   -0.0000437177    0.0001774115
  -0.0000360912    0.0000529932   -0.0000512074

4    
  0.0048507125007267  -0.0048507125007267   0.0072760687510900
   0.0022159248   -0.0011357679    0.0017757289
   0.0011357243   -0.0023289000    0.0017753860
   0.0011631171   -0.0011631171    0.0032912009
  -0.0118436457    0.0118436457   -0.0177972503
  -0.0006143814    0.0010572009   -0.0001605769
   0.0023115651    0.0006097495    0.0020762832
  -0.0006977134    0.0006977134   -0.0004773450
   0.0018376933   -0.0018376933   -0.0009888274
  -0.0000122959   -0.0001484221    0.0002517691
   0.0001471365    0.0000092575    0.0002528718
  -0.0000686413   -0.0007190304    0.0000447056
  -0.0005128117    0.0005264696   -0.0009955189
  -0.0000216186    0.0000654164   -0.0001041728
   0.0000742702    0.0002562823   -0.0001681327
  -0.0005831720   -0.0000405780    0.0001303830
   0.0004569938    0.0001726689   -0.0004463388
   0.0001484221    0.0000122959    0.0002517691
  -0.0000092575   -0.0001471365    0.0002528718
   0.0001350709   -0.0001350709    0.0001676502
  -0.0002533395    0.0002533395   -0.0002445879
  -0.0000654164    0.0000216186   -0.0001041728
  -0.0002562823   -0.0000742702   -0.0001681327
  -0.0000437437    0.0000437437    0.0001196282
   0.0000446469   -0.0000446469   -0.0002421707
   0.0011357679   -0.0022159248    0.0017757289
   0.0023289000   -0.0011357243    0.0017753860
   0.0007190304    0.0000686413    0.0000447056
  -0.0005264696    0.0005128117   -0.0009955189
  -0.0010572009    0.0006143814   -0.0001605769
  -0.0006097495   -0.0023115651    0.0020762832
   0.0000405780    0.0005831720    0.0001303830
  -0.0001726689   -0.0004569938   -0.0004463388
   0.0001604859   -0.0001186104   -0.0003775935
   0.0001184874   -0.0000766673   -0.0007467779
   0.0011627633   -0.0011627633    0.0035069537
  -0.0002865904    0.0002865904    0.0008145703
  -0.0006211839   -0.0023245340    0.0020833932
  -0.0010489437    0.0006164469   -0.0001747181
   0.0000859262   -0.0000859262    0.0005710398
   0.0000004505   -0.0000004505    0.0002272588
   0.0000994453   -0.0001080294   -0.0000743587
   0.0000600912   -0.0000106452   -0.0001508642
   0.0007214915    0.0000670174    0.0000465953
  -0.0002822729    0.0001434987    0.0003176895
  -0.0002574823   -0.0000727688   -0.0001679268
  -0.0000677869    0.0000211580   -0.0001047315
  -0.0000049949   -0.0000400717    0.0002135630
  -0.0001638653    0.0000324428    0.0000566777
   0.0001080294   -0.0000994453   -0.0000743587
   0.0000106452   -0.0000600912   -0.0001508642
   0.0001351226   -0.0001351226    0.0001688195
  -0.0001488185    0.0001488185    0.0001074823
   0.0000727688    0.0002574823   -0.0001679268
  -0.0000211580    0.0000677869   -0.0001047315
   0.0000083131   -0.0000083131    0.0000957355
  -0.0000388654    0.0000388654    0.0000577439
   0.0001186104   -0.0001604859   -0.0003775935
   0.0000766673   -0.0001184874   -0.0007467779
  -0.0000670174   -0.0007214915    0.0000465953
  -0.0001434987    0.0002822729    0.0003176895
   0.0023245340    0.0006211839    0.0020833932
  -0.0006164469    0.0010489437   -0.0001747181
   0.0000400717    0.0000049949    0.0002135630
  -0.0000324428    0.0001638653    0.0000566777
   0.0000726784   -0.0001180697   -0.0007443877
   0.0001179412   -0.0001646366   -0.0003822507
   0.0001820366   -0.0001820366   -0.0003218456
  -0.0002787931    0.0002787931    0.0008107612
  -0.0001287207    0.0001194510    0.0003459318
  -0.0001218550    0.0001284423    0.0003432369
  -0.0000006650    0.0000006650   -0.0003189805
   0.0001379511   -0.0001379511    0.0004069022
   0.0000102922   -0.0000583148   -0.0001514798
   0.0001076413   -0.0001004119   -0.0000759406
   0.0001208802   -0.0001196416   -0.0003197107
  -0.0001451577    0.0002806861    0.0003175762
  -0.0000798980    0.0000404019    0.0002980037
  -0.0000405956    0.0000796148    0.0002976391
  -0.0000472649   -0.0000325397   -0.0003351274
   0.0003615395    0.0000329638    0.0004058965
   0.0000583148   -0.0000102922   -0.0001514798
   0.0001004119   -0.0001076413   -0.0000759406
   0.0000771047   -0.0000771047   -0.0002614863
  -0.0001480210    0.0001480210    0.0001076479
  -0.0000404019    0.0000798980    0.0002980037
  -0.0000796148    0.0000405956    0.0002976391
  -0.0000022263    0.0000022263   -0.0001968008
   0.0000496771   -0.0000496771    0.0001762328
   0.0001180697   -0.0000726784   -0.0007443877
   0.0001646366   -0.0001179412   -0.0003822507
   0.0001196416   -0.0001208802   -0.0003197107
  -0.0002806861    0.0001451577    0.0003175762
  -0.0001194510    0.0001287207    0.0003459318
  -0.0001284423    0.0001218550    0.0003432369
   0.0000325397    0.0000472649   -0.0003351274
  -0.0000329638   -0.0003615395    0.0004058965
  -0.0001411658    0.0006084010    0.0002523150
  -0.0006071673    0.0001432106    0.0002523321
  -0.0001820316    0.0001820316    0.0001688955
   0.0006221156   -0.0006221156   -0.0002445746
   0.0003664647   -0.0002737741   -0.0000105337
   0.0000381749   -0.0002272230   -0.0002616694
   0.0000886869   -0.0000886869    0.0005711158
   0.0018378084   -0.0018378084   -0.0010023155
  -0.0000761456    0.0001118243    0.0002195666
  -0.0001161824    0.0000769889    0.0002187504
  -0.0001743958    0.0001217303    0.0001078165
   0.0000981690   -0.0000984994   -0.0002425350
   0.0001134965   -0.0000709659   -0.0001259266
   0.0000704093   -0.0001248687   -0.0001182903
   0.0000412793    0.0000005801    0.0002109892
  -0.0001782139   -0.0004465945   -0.0004541614
  -0.0001118243    0.0000761456    0.0002195666
  -0.0000769889    0.0001161824    0.0002187504
  -0.0001422578    0.0001422578    0.0000693749
   0.0001649133   -0.0001649133   -0.0001348239
   0.0000709659   -0.0001134965   -0.0001259266
   0.0001248687   -0.0000704093   -0.0001182903
   0.0000092893   -0.0000092893    0.0000948664
   0.0000429977   -0.0000429977   -0.0002428922
  -0.0006084010    0.0001411658    0.0002523150
  -0.0001432106    0.0006071673    0.0002523321
  -0.0001217303    0.0001743958    0.0001078165
   0.0000984994   -0.0000981690   -0.0002425350
   0.0002737741   -0.0003664647   -0.0000105337
   0.0002272230   -0.0000381749   -0.0002616694
  -0.0000005801   -0.0000412793    0.0002109892
   0.0004465945    0.0001782139   -0.0004541614
  -0.0000347353    0.0001478411   -0.0001348380
  -0.0000588547    0.0000833329   -0.0000907749
  -0.0001828204    0.0001828204    0.0001675443
   0.0001945560   -0.0001945560    0.0001080503
   0.0002292947   -0.0000377529   -0.0002612291
   0.0002731230   -0.0003702920   -0.0000115492
  -0.0007036664    0.0007036664   -0.0004820215
   0.0001381604   -0.0001381604    0.0004112246
  -0.0000530809    0.0001957709   -0.0001571822
  -0.0000364013    0.0000533581   -0.0000507676
  -0.0001236277    0.0001746522    0.0001071219
   0.0001108783   -0.0001997316    0.0001170779
   0.0001263300   -0.0000710602   -0.0001174986
   0.0000704996   -0.0001147582   -0.0001251049
   0.0000407788    0.0005855517    0.0001328244
  -0.0000323844   -0.0003652280    0.0004086972
  -0.0001957709    0.0000530809   -0.0001571822
  -0.0000533581    0.0000364013   -0.0000507676
  -0.0001425038    0.0001425038    0.0000695800
   0.0000940726   -0.0000940726    0.0000756715
   0.0000710602   -0.0001263300   -0.0001174986
   0.0001147582   -0.0000704996   -0.0001251049
  -0.0000423242    0.0000423242    0.0001196594
   0.0000495385   -0.0000495385    0.0001760932
  -0.0001478411    0.0000347353   -0.0001348380
  -0.0000833329    0.0000588547   -0.0000907749
  -0.0001746522    0.0001236277    0.0001071219
   0.0001997316   -0.0001108783    0.0001170779
   0.0000377529   -0.0002292947   -0.0002612291
   0.0003702920   -0.0002731230   -0.0000115492
  -0.0005855517   -0.0000407788    0.0001328244
   0.0003652280    0.0000323844    0.0004086972
  -0.0000823884    0.0000574928   -0.0000922889
  -0.0001474358    0.0000337503   -0.0001347525
  -0.0001412245    0.0001412245   -0.0002614873
   0.0001936524   -0.0001936524    0.0001070818
   0.0001195140   -0.0000804530    0.0002974404
   0.0000803361   -0.0001197905    0.0002982041
  -0.0000017787    0.0000017787   -0.0003204670
   0.0000013760   -0.0000013760    0.0002251439
  -0.0000529932    0.0000360912   -0.0000512074
  -0.0001952663    0.0000532696   -0.0001571553
  -0.0001048390    0.0001050541   -0.0001969652
   0.0001989445   -0.0001106426    0.0001171463
   0.0000763915   -0.0000439098    0.0001771231
   0.0000437177   -0.0000765117    0.0001774115
   0.0000328562    0.0000476170   -0.0003359726
  -0.0000329185    0.0001620462    0.0000560321
  -0.0000360912    0.0000529932   -0.0000512074
  -0.0000532696    0.0001952663   -0.0001571553
  -0.0000727281    0.0000727281   -0.0001394819
   0.0000938656   -0.0000938656    0.0000758440
   0.0000439098   -0.0000763915    0.0001771231
   0.0000765117   -0.0000437177    0.0001774115
  -0.0000021479    0.0000021479   -0.0001971289
  -0.0000390725    0.0000390725    0.0000583771
  -0.0000574928    0.0000823884   -0.0000922889
  -0.0000337503    0.0001474358   -0.0001347525
  -0.0001050541    0.0001048390   -0.0001969652
   0.0001106426   -0.0001989445    0.0001171463
   0.0000804530   -0.0001195140    0.0002974404
   0.0001197905   -0.0000803361    0.0002982041
  -0.0000476170   -0.0000328562   -0.0003359726
  -0.0001620462    0.0000329185    0.0000560321
