1044

    1
  0.0000000000   0.0000000000   0.0000000000 
  3.9980874304  -0.0000000000  -0.0000000000 
    1    1    1
 1 1 1     -0.2099511076
 1 1 2      0.0000000000
 1 1 3      0.0000000000
 1 2 1      0.0000000000
 1 2 2      0.0749673288
 1 2 3     -0.0309140906
 1 3 1      0.0000000000
 1 3 2     -0.0309140906
 1 3 3      0.0968268919
 2 1 1      0.0000000000
 2 1 2      0.0749673288
 2 1 3     -0.0309140906
 2 2 1      0.0702060796
 2 2 2     -0.0000000000
 2 2 3      0.0000000000
 2 3 1     -0.0058032686
 2 3 2      0.0000000000
 2 3 3     -0.0000000000
 3 1 1      0.0000000000
 3 1 2     -0.0309140906
 3 1 3      0.0968268919
 3 2 1     -0.0058032686
 3 2 2      0.0000000000
 3 2 3     -0.0000000000
 3 3 1      0.0743096102
 3 3 2      0.0000000000
 3 3 3     -0.0000000000

    2
  0.0000000000   0.0000000000   0.0000000000 
  1.9990437153   3.4624452813   0.0000000000 
    1    1    1
 1 1 1      0.0563088880
 1 1 2     -0.0323173674
 1 1 3     -0.0267723878
 1 2 1     -0.0281940047
 1 2 2     -0.1238007774
 1 2 3     -0.0154570453
 1 3 1     -0.0158990829
 1 3 2      0.0033760712
 1 3 3      0.0484134459
 2 1 1     -0.0281940047
 2 1 2     -0.1238007774
 2 1 3     -0.0154570453
 2 2 1     -0.1261814020
 2 2 2     -0.0887053768
 2 2 3      0.0267723878
 2 3 1     -0.0217347508
 2 3 2      0.0158990829
 2 3 3      0.0838545481
 3 1 1     -0.0158990829
 3 1 2      0.0033760712
 3 1 3      0.0484134459
 3 2 1     -0.0217347508
 3 2 2      0.0158990829
 3 2 3      0.0838545481
 3 3 1      0.0371548051
 3 3 2      0.0643540102
 3 3 3      0.0000000000

    3
  0.0000000000   0.0000000000   0.0000000000 
  1.9990437153   1.1541484271   3.2644247172 
    1    1    1
 1 1 1      0.0563088880
 1 1 2     -0.0360137051
 1 1 3     -0.0215449769
 1 2 1     -0.0243878007
 1 2 2      0.0254818484
 1 2 3     -0.0494033073
 1 3 1     -0.0212818682
 1 3 2     -0.0682364238
 1 3 3     -0.1008691798
 2 1 1     -0.0243878007
 2 1 2      0.0254818484
 2 1 3     -0.0494033073
 2 2 1      0.0053451913
 2 2 2      0.0716097043
 2 2 3      0.0355010486
 2 3 1     -0.0682364238
 2 3 2      0.0575107671
 2 3 3     -0.0582368481
 3 1 1     -0.0212818682
 3 1 2     -0.0682364238
 3 1 3     -0.1008691798
 3 2 1     -0.0682364238
 3 2 2      0.0575107671
 3 2 3     -0.0582368481
 3 3 1     -0.0943717881
 3 3 2     -0.0544855773
 3 3 3     -0.0673838665

    4
  0.0000000000   0.0000000000   0.0000000000 
  0.0000000000   0.0000000000   0.0000000000 
    1    1    2
 1 1 1     -0.0031738790
 1 1 2      0.0362358146
 1 1 3      0.0256225902
 1 2 1      0.0206189568
 1 2 2     -0.0100743567
 1 2 3      0.0339430217
 1 3 1      0.0145798042
 1 3 2      0.0339430217
 1 3 3     -0.0340756975
 2 1 1      0.0206189568
 2 1 2     -0.0100743567
 2 1 3      0.0339430217
 2 2 1      0.0169748345
 2 2 2     -0.0282678293
 2 2 3     -0.0135714352
 2 3 1      0.0339430217
 2 3 2     -0.0246142212
 2 3 3     -0.0196736132
 3 1 1      0.0145798042
 3 1 2      0.0339430217
 3 1 3     -0.0340756975
 3 2 1      0.0339430217
 3 2 2     -0.0246142212
 3 2 3     -0.0196736132
 3 3 1     -0.0070265063
 3 3 2     -0.0040567553
 3 3 3     -0.0092854978

    5
  3.9980874304  -0.0000000000  -0.0000000000 
  0.0000000000   0.0000000000   0.0000000000 
    1    1    1
 1 1 1     -0.2099511076
 1 1 2      0.0000000000
 1 1 3      0.0000000000
 1 2 1      0.0000000000
 1 2 2      0.0749673288
 1 2 3     -0.0309140906
 1 3 1      0.0000000000
 1 3 2     -0.0309140906
 1 3 3      0.0968268919
 2 1 1      0.0000000000
 2 1 2      0.0702060796
 2 1 3     -0.0058032686
 2 2 1      0.0749673288
 2 2 2     -0.0000000000
 2 2 3      0.0000000000
 2 3 1     -0.0309140906
 2 3 2      0.0000000000
 2 3 3     -0.0000000000
 3 1 1      0.0000000000
 3 1 2     -0.0058032686
 3 1 3      0.0743096102
 3 2 1     -0.0309140906
 3 2 2      0.0000000000
 3 2 3      0.0000000000
 3 3 1      0.0968268919
 3 3 2     -0.0000000000
 3 3 3     -0.0000000000

    6
  3.9980874304  -0.0000000000  -0.0000000000 
  3.9980874304  -0.0000000000  -0.0000000000 
    1    1    1
 1 1 1      0.2099511076
 1 1 2     -0.0000000000
 1 1 3     -0.0000000000
 1 2 1     -0.0000000000
 1 2 2     -0.0702060796
 1 2 3      0.0058032686
 1 3 1     -0.0000000000
 1 3 2      0.0058032686
 1 3 3     -0.0743096102
 2 1 1     -0.0000000000
 2 1 2     -0.0749673288
 2 1 3      0.0309140906
 2 2 1     -0.0749673288
 2 2 2      0.0000000000
 2 2 3      0.0000000000
 2 3 1      0.0309140906
 2 3 2      0.0000000000
 2 3 3      0.0000000000
 3 1 1     -0.0000000000
 3 1 2      0.0309140906
 3 1 3     -0.0968268919
 3 2 1      0.0309140906
 3 2 2      0.0000000000
 3 2 3      0.0000000000
 3 3 1     -0.0968268919
 3 3 2      0.0000000000
 3 3 3      0.0000000000

    7
  3.9980874304  -0.0000000000  -0.0000000000 
  1.9990437153   3.4624452813   0.0000000000 
    1    1    1
 1 1 1      0.0000000000
 1 1 2      0.0109144584
 1 1 3      0.0007483869
 1 2 1      0.0071098307
 1 2 2     -0.0021966029
 1 2 3      0.0028907062
 1 3 1     -0.0003378082
 1 3 2     -0.0022635912
 1 3 3     -0.0072240543
 2 1 1      0.0071098307
 2 1 2      0.0021966029
 2 1 3     -0.0028907062
 2 2 1      0.0000000000
 2 2 2     -0.0083780399
 2 2 3     -0.0006998732
 2 3 1      0.0035178213
 2 3 2      0.0003863219
 2 3 3     -0.0041708097
 3 1 1     -0.0003378082
 3 1 2      0.0022635912
 3 1 3      0.0072240543
 3 2 1     -0.0035178213
 3 2 2      0.0003863219
 3 2 3     -0.0041708097
 3 3 1      0.0000000000
 3 3 2      0.0083416194
 3 3 3      0.0146358174

    8
  3.9980874304  -0.0000000000  -0.0000000000 
  1.9990437153   1.1541484271   3.2644247172 
    1    1    1
 1 1 1      0.0000000000
 1 1 2      0.0043437388
 1 1 3      0.0100407878
 1 2 1      0.0020514549
 1 2 2     -0.0064683654
 1 2 3     -0.0007532951
 1 3 1      0.0068158154
 1 3 2      0.0044010023
 1 3 3     -0.0029522918
 2 1 1      0.0020514549
 2 1 2      0.0064683654
 2 1 3      0.0007532951
 2 2 1      0.0000000000
 2 2 2      0.0119629085
 2 2 3      0.0029052138
 2 3 1     -0.0035178213
 2 3 2     -0.0092536826
 2 3 3     -0.0019828496
 3 1 1      0.0068158154
 3 1 2     -0.0044010023
 3 1 3      0.0029522918
 3 2 1      0.0035178213
 3 2 2     -0.0092536826
 3 2 3     -0.0019828496
 3 3 1      0.0000000000
 3 3 2      0.0011638855
 3 3 3     -0.0075848661

    9
  3.9980874304  -0.0000000000  -0.0000000000 
  0.0000000000   0.0000000000   0.0000000000 
    1    1    2
 1 1 1     -0.0080873111
 1 1 2      0.0065983981
 1 1 3      0.0046657721
 1 2 1      0.0006903380
 1 2 2      0.0002152933
 1 2 3      0.0008522349
 1 3 1      0.0004881427
 1 3 2      0.0008522349
 1 3 3     -0.0003873278
 2 1 1      0.0133014010
 2 1 2     -0.0003096145
 2 1 3      0.0006255622
 2 2 1     -0.0038854857
 2 2 2     -0.0055012686
 2 2 3     -0.0065900704
 2 3 1     -0.0014763076
 2 3 2     -0.0201217830
 2 3 3     -0.0126956395
 3 1 1      0.0094055109
 3 1 2      0.0006255622
 3 1 3     -0.0007519538
 3 2 1     -0.0014763076
 3 2 2     -0.0195768534
 3 2 3     -0.0134662863
 3 3 1     -0.0028415785
 3 3 2      0.0056704451
 3 3 3      0.0067096963

   10
  1.9990437153   3.4624452813   0.0000000000 
  0.0000000000   0.0000000000   0.0000000000 
    1    1    1
 1 1 1      0.0563088880
 1 1 2     -0.0281940047
 1 1 3     -0.0158990829
 1 2 1     -0.0323173674
 1 2 2     -0.1238007774
 1 2 3      0.0033760712
 1 3 1     -0.0267723878
 1 3 2     -0.0154570453
 1 3 3      0.0484134459
 2 1 1     -0.0281940047
 2 1 2     -0.1261814020
 2 1 3     -0.0217347508
 2 2 1     -0.1238007774
 2 2 2     -0.0887053768
 2 2 3      0.0158990829
 2 3 1     -0.0154570453
 2 3 2      0.0267723878
 2 3 3      0.0838545481
 3 1 1     -0.0158990829
 3 1 2     -0.0217347508
 3 1 3      0.0371548051
 3 2 1      0.0033760712
 3 2 2      0.0158990829
 3 2 3      0.0643540102
 3 3 1      0.0484134459
 3 3 2      0.0838545481
 3 3 3      0.0000000000

   11
  1.9990437153   3.4624452813   0.0000000000 
  3.9980874304  -0.0000000000  -0.0000000000 
    1    1    1
 1 1 1      0.0000000000
 1 1 2      0.0071098307
 1 1 3     -0.0003378082
 1 2 1      0.0109144584
 1 2 2     -0.0021966029
 1 2 3     -0.0022635912
 1 3 1      0.0007483869
 1 3 2      0.0028907062
 1 3 3     -0.0072240543
 2 1 1      0.0071098307
 2 1 2      0.0000000000
 2 1 3      0.0035178213
 2 2 1      0.0021966029
 2 2 2     -0.0083780399
 2 2 3      0.0003863219
 2 3 1     -0.0028907062
 2 3 2     -0.0006998732
 2 3 3     -0.0041708097
 3 1 1     -0.0003378082
 3 1 2     -0.0035178213
 3 1 3      0.0000000000
 3 2 1      0.0022635912
 3 2 2      0.0003863219
 3 2 3      0.0083416194
 3 3 1      0.0072240543
 3 3 2     -0.0041708097
 3 3 3      0.0146358174

   12
  1.9990437153   3.4624452813   0.0000000000 
  1.9990437153   3.4624452813   0.0000000000 
    1    1    1
 1 1 1     -0.0563088880
 1 1 2      0.0281940047
 1 1 3      0.0158990829
 1 2 1      0.0281940047
 1 2 2      0.1261814020
 1 2 3      0.0217347508
 1 3 1      0.0158990829
 1 3 2      0.0217347508
 1 3 3     -0.0371548051
 2 1 1      0.0323173674
 2 1 2      0.1238007774
 2 1 3     -0.0033760712
 2 2 1      0.1238007774
 2 2 2      0.0887053768
 2 2 3     -0.0158990829
 2 3 1     -0.0033760712
 2 3 2     -0.0158990829
 2 3 3     -0.0643540102
 3 1 1      0.0267723878
 3 1 2      0.0154570453
 3 1 3     -0.0484134459
 3 2 1      0.0154570453
 3 2 2     -0.0267723878
 3 2 3     -0.0838545481
 3 3 1     -0.0484134459
 3 3 2     -0.0838545481
 3 3 3      0.0000000000

   13
  1.9990437153   3.4624452813   0.0000000000 
  1.9990437153   1.1541484271   3.2644247172 
    1    1    1
 1 1 1      0.0095988901
 1 1 2     -0.0034904668
 1 1 3      0.0046891073
 1 2 1      0.0032574438
 1 2 2     -0.0006962780
 1 2 3      0.0038430892
 1 3 1     -0.0048538795
 1 3 2      0.0032196802
 1 3 3     -0.0031933441
 2 1 1     -0.0079460937
 2 1 2      0.0057720874
 2 1 3      0.0023364991
 2 2 1      0.0045230807
 2 2 2     -0.0046628568
 2 2 3      0.0082568943
 2 3 1      0.0111385038
 2 3 2      0.0024160123
 2 3 3     -0.0015653349
 3 1 1     -0.0056187367
 3 1 2      0.0106969133
 3 1 3     -0.0002410523
 3 2 1      0.0027780896
 3 2 2      0.0031808695
 3 2 3      0.0035481845
 3 3 1      0.0010079544
 3 3 2     -0.0005819427
 3 3 3     -0.0075848661

   14
  1.9990437153   3.4624452813   0.0000000000 
  0.0000000000   0.0000000000   0.0000000000 
    1    1    2
 1 1 1     -0.0016186248
 1 1 2      0.0022308481
 1 1 3     -0.0031362049
 1 2 1      0.0082816734
 1 2 2      0.0044377287
 1 2 3      0.0051300357
 1 3 1     -0.0152395330
 1 3 2      0.0076040702
 1 3 3     -0.0111884102
 2 1 1      0.0024307253
 2 1 2     -0.0067462261
 2 1 3      0.0053567084
 2 2 1     -0.0034176315
 2 2 2     -0.0131481590
 2 2 3      0.0012119065
 2 3 1      0.0099326126
 2 3 2     -0.0043941073
 2 3 3      0.0060123840
 3 1 1     -0.0126996459
 3 1 2      0.0112861106
 3 1 3     -0.0120381229
 3 2 1      0.0133879804
 3 2 2      0.0025283034
 3 2 3      0.0060819320
 3 3 1      0.0034899602
 3 3 2     -0.0052961017
 3 3 3      0.0067096963

   15
  1.9990437153   1.1541484271   3.2644247172 
  0.0000000000   0.0000000000   0.0000000000 
    1    1    1
 1 1 1      0.0563088880
 1 1 2     -0.0243878007
 1 1 3     -0.0212818682
 1 2 1     -0.0360137051
 1 2 2      0.0254818484
 1 2 3     -0.0682364238
 1 3 1     -0.0215449769
 1 3 2     -0.0494033073
 1 3 3     -0.1008691798
 2 1 1     -0.0243878007
 2 1 2      0.0053451913
 2 1 3     -0.0682364238
 2 2 1      0.0254818484
 2 2 2      0.0716097043
 2 2 3      0.0575107671
 2 3 1     -0.0494033073
 2 3 2      0.0355010486
 2 3 3     -0.0582368481
 3 1 1     -0.0212818682
 3 1 2     -0.0682364238
 3 1 3     -0.0943717881
 3 2 1     -0.0682364238
 3 2 2      0.0575107671
 3 2 3     -0.0544855773
 3 3 1     -0.1008691798
 3 3 2     -0.0582368481
 3 3 3     -0.0673838665

   16
  1.9990437153   1.1541484271   3.2644247172 
  3.9980874304  -0.0000000000  -0.0000000000 
    1    1    1
 1 1 1      0.0000000000
 1 1 2      0.0020514549
 1 1 3      0.0068158154
 1 2 1      0.0043437388
 1 2 2     -0.0064683654
 1 2 3      0.0044010023
 1 3 1      0.0100407878
 1 3 2     -0.0007532951
 1 3 3     -0.0029522918
 2 1 1      0.0020514549
 2 1 2      0.0000000000
 2 1 3     -0.0035178213
 2 2 1      0.0064683654
 2 2 2      0.0119629085
 2 2 3     -0.0092536826
 2 3 1      0.0007532951
 2 3 2      0.0029052138
 2 3 3     -0.0019828496
 3 1 1      0.0068158154
 3 1 2      0.0035178213
 3 1 3      0.0000000000
 3 2 1     -0.0044010023
 3 2 2     -0.0092536826
 3 2 3      0.0011638855
 3 3 1      0.0029522918
 3 3 2     -0.0019828496
 3 3 3     -0.0075848661

   17
  1.9990437153   1.1541484271   3.2644247172 
  1.9990437153   3.4624452813   0.0000000000 
    1    1    1
 1 1 1      0.0095988901
 1 1 2      0.0032574438
 1 1 3     -0.0048538795
 1 2 1     -0.0034904668
 1 2 2     -0.0006962780
 1 2 3      0.0032196802
 1 3 1      0.0046891073
 1 3 2      0.0038430892
 1 3 3     -0.0031933441
 2 1 1     -0.0079460937
 2 1 2      0.0045230807
 2 1 3      0.0111385038
 2 2 1      0.0057720874
 2 2 2     -0.0046628568
 2 2 3      0.0024160123
 2 3 1      0.0023364991
 2 3 2      0.0082568943
 2 3 3     -0.0015653349
 3 1 1     -0.0056187367
 3 1 2      0.0027780896
 3 1 3      0.0010079544
 3 2 1      0.0106969133
 3 2 2      0.0031808695
 3 2 3     -0.0005819427
 3 3 1     -0.0002410523
 3 3 2      0.0035481845
 3 3 3     -0.0075848661

   18
  1.9990437153   1.1541484271   3.2644247172 
  1.9990437153   1.1541484271   3.2644247172 
    1    1    1
 1 1 1     -0.0563088880
 1 1 2      0.0243878007
 1 1 3      0.0212818682
 1 2 1      0.0243878007
 1 2 2     -0.0053451913
 1 2 3      0.0682364238
 1 3 1      0.0212818682
 1 3 2      0.0682364238
 1 3 3      0.0943717881
 2 1 1      0.0360137051
 2 1 2     -0.0254818484
 2 1 3      0.0682364238
 2 2 1     -0.0254818484
 2 2 2     -0.0716097043
 2 2 3     -0.0575107671
 2 3 1      0.0682364238
 2 3 2     -0.0575107671
 2 3 3      0.0544855773
 3 1 1      0.0215449769
 3 1 2      0.0494033073
 3 1 3      0.1008691798
 3 2 1      0.0494033073
 3 2 2     -0.0355010486
 3 2 3      0.0582368481
 3 3 1      0.1008691798
 3 3 2      0.0582368481
 3 3 3      0.0673838665

   19
  1.9990437153   1.1541484271   3.2644247172 
  0.0000000000   0.0000000000   0.0000000000 
    1    1    2
 1 1 1     -0.0016186248
 1 1 2     -0.0022132263
 1 1 3      0.0031486654
 1 2 1     -0.0116074117
 1 2 2     -0.0054502292
 1 2 3      0.0110999912
 1 3 1      0.0128878809
 1 3 2      0.0086259567
 1 3 3     -0.0013004523
 2 1 1     -0.0111630992
 2 1 2     -0.0062198010
 2 1 3      0.0110999912
 2 2 1      0.0100514054
 2 2 2      0.0070818945
 2 2 3     -0.0096685004
 2 3 1      0.0086259567
 2 3 2      0.0029274840
 2 3 3     -0.0007508165
 3 1 1      0.0065249251
 3 1 2      0.0051705890
 3 1 3     -0.0125645481
 3 2 1      0.0051705890
 3 2 2      0.0005544432
 3 2 3     -0.0072541452
 3 3 1     -0.0099790767
 3 3 2     -0.0057614226
 3 3 3     -0.0103614496

   20
  0.0000000000   0.0000000000   0.0000000000 
  0.0000000000   0.0000000000   0.0000000000 
    1    2    1
 1 1 1     -0.0031738790
 1 1 2      0.0206189568
 1 1 3      0.0145798042
 1 2 1      0.0362358146
 1 2 2     -0.0100743567
 1 2 3      0.0339430217
 1 3 1      0.0256225902
 1 3 2      0.0339430217
 1 3 3     -0.0340756975
 2 1 1      0.0206189568
 2 1 2      0.0169748345
 2 1 3      0.0339430217
 2 2 1     -0.0100743567
 2 2 2     -0.0282678293
 2 2 3     -0.0246142212
 2 3 1      0.0339430217
 2 3 2     -0.0135714352
 2 3 3     -0.0196736132
 3 1 1      0.0145798042
 3 1 2      0.0339430217
 3 1 3     -0.0070265063
 3 2 1      0.0339430217
 3 2 2     -0.0246142212
 3 2 3     -0.0040567553
 3 3 1     -0.0340756975
 3 3 2     -0.0196736132
 3 3 3     -0.0092854978

   21
  0.0000000000   0.0000000000   0.0000000000 
  3.9980874304  -0.0000000000  -0.0000000000 
    1    2    1
 1 1 1     -0.0080873111
 1 1 2      0.0006903380
 1 1 3      0.0004881427
 1 2 1      0.0065983981
 1 2 2      0.0002152933
 1 2 3      0.0008522349
 1 3 1      0.0046657721
 1 3 2      0.0008522349
 1 3 3     -0.0003873278
 2 1 1      0.0133014010
 2 1 2     -0.0038854857
 2 1 3     -0.0014763076
 2 2 1     -0.0003096145
 2 2 2     -0.0055012686
 2 2 3     -0.0201217830
 2 3 1      0.0006255622
 2 3 2     -0.0065900704
 2 3 3     -0.0126956395
 3 1 1      0.0094055109
 3 1 2     -0.0014763076
 3 1 3     -0.0028415785
 3 2 1      0.0006255622
 3 2 2     -0.0195768534
 3 2 3      0.0056704451
 3 3 1     -0.0007519538
 3 3 2     -0.0134662863
 3 3 3      0.0067096963

   22
  0.0000000000   0.0000000000   0.0000000000 
  1.9990437153   3.4624452813   0.0000000000 
    1    2    1
 1 1 1     -0.0016186248
 1 1 2      0.0082816734
 1 1 3     -0.0152395330
 1 2 1      0.0022308481
 1 2 2      0.0044377287
 1 2 3      0.0076040702
 1 3 1     -0.0031362049
 1 3 2      0.0051300357
 1 3 3     -0.0111884102
 2 1 1      0.0024307253
 2 1 2     -0.0034176315
 2 1 3      0.0099326126
 2 2 1     -0.0067462261
 2 2 2     -0.0131481590
 2 2 3     -0.0043941073
 2 3 1      0.0053567084
 2 3 2      0.0012119065
 2 3 3      0.0060123840
 3 1 1     -0.0126996459
 3 1 2      0.0133879804
 3 1 3      0.0034899602
 3 2 1      0.0112861106
 3 2 2      0.0025283034
 3 2 3     -0.0052961017
 3 3 1     -0.0120381229
 3 3 2      0.0060819320
 3 3 3      0.0067096963

   23
  0.0000000000   0.0000000000   0.0000000000 
  1.9990437153   1.1541484271   3.2644247172 
    1    2    1
 1 1 1     -0.0016186248
 1 1 2     -0.0116074117
 1 1 3      0.0128878809
 1 2 1     -0.0022132263
 1 2 2     -0.0054502292
 1 2 3      0.0086259567
 1 3 1      0.0031486654
 1 3 2      0.0110999912
 1 3 3     -0.0013004523
 2 1 1     -0.0111630992
 2 1 2      0.0100514054
 2 1 3      0.0086259567
 2 2 1     -0.0062198010
 2 2 2      0.0070818945
 2 2 3      0.0029274840
 2 3 1      0.0110999912
 2 3 2     -0.0096685004
 2 3 3     -0.0007508165
 3 1 1      0.0065249251
 3 1 2      0.0051705890
 3 1 3     -0.0099790767
 3 2 1      0.0051705890
 3 2 2      0.0005544432
 3 2 3     -0.0057614226
 3 3 1     -0.0125645481
 3 3 2     -0.0072541452
 3 3 3     -0.0103614496

   24
  0.0000000000   0.0000000000   0.0000000000 
  0.0000000000   0.0000000000   0.0000000000 
    1    2    2
 1 1 1      0.0201271006
 1 1 2     -0.0199621035
 1 1 3     -0.0141153388
 1 2 1     -0.0199621035
 1 2 2     -0.0123286757
 1 2 3     -0.0231368753
 1 3 1     -0.0141153388
 1 3 2     -0.0231368753
 1 3 3      0.0040315657
 2 1 1     -0.0364492433
 2 1 2      0.0162278882
 2 1 3     -0.0231368753
 2 2 1      0.0162278882
 2 2 2      0.0409516661
 2 2 3      0.0126008236
 2 3 1     -0.0231368753
 2 3 2      0.0126008236
 2 3 3      0.0023276255
 3 1 1     -0.0257735071
 3 1 2     -0.0231368753
 3 1 3      0.0325881295
 3 2 1     -0.0231368753
 3 2 2      0.0009426552
 3 2 3      0.0188147654
 3 3 1      0.0325881295
 3 3 2      0.0188147654
 3 3 3      0.0296604254

   25
 -3.9980874304   0.0000000000   0.0000000000 
 -3.9980874304   0.0000000000   0.0000000000 
    1    1    1
 1 1 1     -0.2099511076
 1 1 2      0.0000000000
 1 1 3      0.0000000000
 1 2 1      0.0000000000
 1 2 2      0.0702060796
 1 2 3     -0.0058032686
 1 3 1      0.0000000000
 1 3 2     -0.0058032686
 1 3 3      0.0743096102
 2 1 1      0.0000000000
 2 1 2      0.0749673288
 2 1 3     -0.0309140906
 2 2 1      0.0749673288
 2 2 2     -0.0000000000
 2 2 3      0.0000000000
 2 3 1     -0.0309140906
 2 3 2      0.0000000000
 2 3 3      0.0000000000
 3 1 1      0.0000000000
 3 1 2     -0.0309140906
 3 1 3      0.0968268919
 3 2 1     -0.0309140906
 3 2 2      0.0000000000
 3 2 3     -0.0000000000
 3 3 1      0.0968268919
 3 3 2     -0.0000000000
 3 3 3     -0.0000000000

   26
 -3.9980874304   0.0000000000   0.0000000000 
  0.0000000000   0.0000000000   0.0000000000 
    1    1    1
 1 1 1      0.2099511076
 1 1 2     -0.0000000000
 1 1 3     -0.0000000000
 1 2 1     -0.0000000000
 1 2 2     -0.0749673288
 1 2 3      0.0309140906
 1 3 1     -0.0000000000
 1 3 2      0.0309140906
 1 3 3     -0.0968268919
 2 1 1     -0.0000000000
 2 1 2     -0.0702060796
 2 1 3      0.0058032686
 2 2 1     -0.0749673288
 2 2 2      0.0000000000
 2 2 3      0.0000000000
 2 3 1      0.0309140906
 2 3 2      0.0000000000
 2 3 3      0.0000000000
 3 1 1     -0.0000000000
 3 1 2      0.0058032686
 3 1 3     -0.0743096102
 3 2 1      0.0309140906
 3 2 2      0.0000000000
 3 2 3      0.0000000000
 3 3 1     -0.0968268919
 3 3 2      0.0000000000
 3 3 3      0.0000000000

   27
 -3.9980874304   0.0000000000   0.0000000000 
 -1.9990437152   3.4624452813   0.0000000000 
    1    1    1
 1 1 1      0.0000000000
 1 1 2      0.0109144584
 1 1 3      0.0007483869
 1 2 1      0.0071098307
 1 2 2      0.0021966029
 1 2 3     -0.0028907062
 1 3 1     -0.0003378082
 1 3 2      0.0022635912
 1 3 3      0.0072240543
 2 1 1      0.0071098307
 2 1 2     -0.0021966029
 2 1 3      0.0028907062
 2 2 1      0.0000000000
 2 2 2     -0.0083780399
 2 2 3     -0.0006998732
 2 3 1     -0.0035178213
 2 3 2      0.0003863219
 2 3 3     -0.0041708097
 3 1 1     -0.0003378082
 3 1 2     -0.0022635912
 3 1 3     -0.0072240543
 3 2 1      0.0035178213
 3 2 2      0.0003863219
 3 2 3     -0.0041708097
 3 3 1      0.0000000000
 3 3 2      0.0083416194
 3 3 3      0.0146358174

   28
 -3.9980874304   0.0000000000   0.0000000000 
 -1.9990437152   1.1541484271   3.2644247172 
    1    1    1
 1 1 1      0.0000000000
 1 1 2      0.0043437388
 1 1 3      0.0100407878
 1 2 1      0.0020514549
 1 2 2      0.0064683654
 1 2 3      0.0007532951
 1 3 1      0.0068158154
 1 3 2     -0.0044010023
 1 3 3      0.0029522918
 2 1 1      0.0020514549
 2 1 2     -0.0064683654
 2 1 3     -0.0007532951
 2 2 1      0.0000000000
 2 2 2      0.0119629085
 2 2 3      0.0029052138
 2 3 1      0.0035178213
 2 3 2     -0.0092536826
 2 3 3     -0.0019828496
 3 1 1      0.0068158154
 3 1 2      0.0044010023
 3 1 3     -0.0029522918
 3 2 1     -0.0035178213
 3 2 2     -0.0092536826
 3 2 3     -0.0019828496
 3 3 1      0.0000000000
 3 3 2      0.0011638855
 3 3 3     -0.0075848661

   29
 -3.9980874304   0.0000000000   0.0000000000 
 -3.9980874304   0.0000000000   0.0000000000 
    1    1    2
 1 1 1     -0.0080873111
 1 1 2      0.0065983981
 1 1 3      0.0046657721
 1 2 1      0.0133014010
 1 2 2     -0.0003096145
 1 2 3      0.0006255622
 1 3 1      0.0094055109
 1 3 2      0.0006255622
 1 3 3     -0.0007519538
 2 1 1      0.0006903380
 2 1 2      0.0002152933
 2 1 3      0.0008522349
 2 2 1     -0.0038854857
 2 2 2     -0.0055012686
 2 2 3     -0.0065900704
 2 3 1     -0.0014763076
 2 3 2     -0.0195768534
 2 3 3     -0.0134662863
 3 1 1      0.0004881427
 3 1 2      0.0008522349
 3 1 3     -0.0003873278
 3 2 1     -0.0014763076
 3 2 2     -0.0201217830
 3 2 3     -0.0126956395
 3 3 1     -0.0028415785
 3 3 2      0.0056704451
 3 3 3      0.0067096963

   30
  0.0000000000   0.0000000000   0.0000000000 
 -3.9980874304   0.0000000000   0.0000000000 
    1    1    1
 1 1 1      0.2099511076
 1 1 2     -0.0000000000
 1 1 3     -0.0000000000
 1 2 1     -0.0000000000
 1 2 2     -0.0749673288
 1 2 3      0.0309140906
 1 3 1     -0.0000000000
 1 3 2      0.0309140906
 1 3 3     -0.0968268919
 2 1 1     -0.0000000000
 2 1 2     -0.0749673288
 2 1 3      0.0309140906
 2 2 1     -0.0702060796
 2 2 2      0.0000000000
 2 2 3      0.0000000000
 2 3 1      0.0058032686
 2 3 2      0.0000000000
 2 3 3      0.0000000000
 3 1 1     -0.0000000000
 3 1 2      0.0309140906
 3 1 3     -0.0968268919
 3 2 1      0.0058032686
 3 2 2      0.0000000000
 3 2 3      0.0000000000
 3 3 1     -0.0743096102
 3 3 2      0.0000000000
 3 3 3      0.0000000000

   31
  0.0000000000   0.0000000000   0.0000000000 
 -1.9990437152   3.4624452813   0.0000000000 
    1    1    1
 1 1 1     -0.0563088880
 1 1 2     -0.0323173674
 1 1 3     -0.0267723878
 1 2 1     -0.0281940047
 1 2 2      0.1238007774
 1 2 3      0.0154570453
 1 3 1     -0.0158990829
 1 3 2     -0.0033760712
 1 3 3     -0.0484134459
 2 1 1     -0.0281940047
 2 1 2      0.1238007774
 2 1 3      0.0154570453
 2 2 1      0.1261814020
 2 2 2     -0.0887053768
 2 2 3      0.0267723878
 2 3 1      0.0217347508
 2 3 2      0.0158990829
 2 3 3      0.0838545481
 3 1 1     -0.0158990829
 3 1 2     -0.0033760712
 3 1 3     -0.0484134459
 3 2 1      0.0217347508
 3 2 2      0.0158990829
 3 2 3      0.0838545481
 3 3 1     -0.0371548051
 3 3 2      0.0643540102
 3 3 3      0.0000000000

   32
  0.0000000000   0.0000000000   0.0000000000 
 -1.9990437152   1.1541484271   3.2644247172 
    1    1    1
 1 1 1     -0.0563088880
 1 1 2     -0.0360137051
 1 1 3     -0.0215449769
 1 2 1     -0.0243878007
 1 2 2     -0.0254818484
 1 2 3      0.0494033073
 1 3 1     -0.0212818682
 1 3 2      0.0682364238
 1 3 3      0.1008691798
 2 1 1     -0.0243878007
 2 1 2     -0.0254818484
 2 1 3      0.0494033073
 2 2 1     -0.0053451913
 2 2 2      0.0716097043
 2 2 3      0.0355010486
 2 3 1      0.0682364238
 2 3 2      0.0575107670
 2 3 3     -0.0582368481
 3 1 1     -0.0212818682
 3 1 2      0.0682364238
 3 1 3      0.1008691798
 3 2 1      0.0682364238
 3 2 2      0.0575107670
 3 2 3     -0.0582368481
 3 3 1      0.0943717881
 3 3 2     -0.0544855773
 3 3 3     -0.0673838665

   33
  0.0000000000   0.0000000000   0.0000000000 
  0.0000000001   4.6165937084   3.2644247172 
    1    1    1
 1 1 1      0.0000000000
 1 1 2      0.0109598031
 1 1 3      0.0077497511
 1 2 1     -0.0056477878
 1 2 2      0.0000000000
 1 2 3      0.0000000000
 1 3 1     -0.0039935890
 1 3 2      0.0000000000
 1 3 3      0.0000000000
 2 1 1     -0.0056477878
 2 1 2      0.0000000000
 2 1 3      0.0000000000
 2 2 1      0.0000000000
 2 2 2      0.0360880497
 2 2 3      0.0335052827
 2 3 1      0.0000000000
 2 3 2      0.0217619426
 2 3 3      0.0125641233
 3 1 1     -0.0039935890
 3 1 2      0.0000000000
 3 1 3      0.0000000000
 3 2 1      0.0000000000
 3 2 2      0.0217619426
 3 2 3      0.0125641233
 3 3 1      0.0000000000
 3 3 2      0.0291717142
 3 3 3      0.0126403389

   34
  0.0000000000   0.0000000000   0.0000000000 
 -3.9980874304   0.0000000000   0.0000000000 
    1    1    2
 1 1 1      0.0000000000
 1 1 2      0.2982367077
 1 1 3      0.2108851984
 1 2 1      0.1538704571
 1 2 2     -0.0000000000
 1 2 3     -0.0000000000
 1 3 1      0.1088028436
 1 3 2     -0.0000000000
 1 3 3     -0.0000000000
 2 1 1      0.1538704571
 2 1 2     -0.0000000000
 2 1 3     -0.0000000000
 2 2 1     -0.0000000000
 2 2 2     -2.5240839106
 2 2 3     -2.0024025368
 2 3 1     -0.0000000000
 2 3 2     -2.1044848916
 2 3 3     -1.4111603092
 3 1 1      0.1088028436
 3 1 2     -0.0000000000
 3 1 3     -0.0000000000
 3 2 1     -0.0000000000
 3 2 2     -2.1044848916
 3 2 3     -1.4111603092
 3 3 1     -0.0000000000
 3 3 2     -1.2667940586
 3 3 3     -0.6781529820

   35
  3.9980874304  -0.0000000000  -0.0000000000 
 -3.9980874304   0.0000000000   0.0000000000 
    1    1    2
 1 1 1      0.0080873111
 1 1 2      0.0065983981
 1 1 3      0.0046657721
 1 2 1      0.0133014010
 1 2 2      0.0003096145
 1 2 3     -0.0006255622
 1 3 1      0.0094055109
 1 3 2     -0.0006255622
 1 3 3      0.0007519538
 2 1 1      0.0006903380
 2 1 2     -0.0002152933
 2 1 3     -0.0008522349
 2 2 1      0.0038854857
 2 2 2     -0.0055012686
 2 2 3     -0.0065900704
 2 3 1      0.0014763076
 2 3 2     -0.0195768534
 2 3 3     -0.0134662863
 3 1 1      0.0004881427
 3 1 2     -0.0008522349
 3 1 3      0.0003873278
 3 2 1      0.0014763076
 3 2 2     -0.0201217830
 3 2 3     -0.0126956395
 3 3 1      0.0028415785
 3 3 2      0.0056704451
 3 3 3      0.0067096963

   36
 -1.9990437152   3.4624452813   0.0000000000 
 -3.9980874304   0.0000000000   0.0000000000 
    1    1    1
 1 1 1      0.0000000000
 1 1 2      0.0071098307
 1 1 3     -0.0003378082
 1 2 1      0.0109144584
 1 2 2      0.0021966029
 1 2 3      0.0022635912
 1 3 1      0.0007483869
 1 3 2     -0.0028907062
 1 3 3      0.0072240543
 2 1 1      0.0071098307
 2 1 2      0.0000000000
 2 1 3     -0.0035178213
 2 2 1     -0.0021966029
 2 2 2     -0.0083780399
 2 2 3      0.0003863219
 2 3 1      0.0028907062
 2 3 2     -0.0006998732
 2 3 3     -0.0041708097
 3 1 1     -0.0003378082
 3 1 2      0.0035178213
 3 1 3      0.0000000000
 3 2 1     -0.0022635912
 3 2 2      0.0003863219
 3 2 3      0.0083416194
 3 3 1     -0.0072240543
 3 3 2     -0.0041708097
 3 3 3      0.0146358174

   37
 -1.9990437152   3.4624452813   0.0000000000 
  0.0000000000   0.0000000000   0.0000000000 
    1    1    1
 1 1 1     -0.0563088880
 1 1 2     -0.0281940047
 1 1 3     -0.0158990829
 1 2 1     -0.0323173674
 1 2 2      0.1238007774
 1 2 3     -0.0033760712
 1 3 1     -0.0267723878
 1 3 2      0.0154570453
 1 3 3     -0.0484134459
 2 1 1     -0.0281940047
 2 1 2      0.1261814020
 2 1 3      0.0217347508
 2 2 1      0.1238007774
 2 2 2     -0.0887053768
 2 2 3      0.0158990829
 2 3 1      0.0154570453
 2 3 2      0.0267723878
 2 3 3      0.0838545481
 3 1 1     -0.0158990829
 3 1 2      0.0217347508
 3 1 3     -0.0371548051
 3 2 1     -0.0033760712
 3 2 2      0.0158990829
 3 2 3      0.0643540102
 3 3 1     -0.0484134459
 3 3 2      0.0838545481
 3 3 3      0.0000000000

   38
 -1.9990437152   3.4624452813   0.0000000000 
 -1.9990437152   3.4624452813   0.0000000000 
    1    1    1
 1 1 1      0.0563088880
 1 1 2      0.0281940047
 1 1 3      0.0158990829
 1 2 1      0.0281940047
 1 2 2     -0.1261814020
 1 2 3     -0.0217347508
 1 3 1      0.0158990829
 1 3 2     -0.0217347508
 1 3 3      0.0371548051
 2 1 1      0.0323173674
 2 1 2     -0.1238007774
 2 1 3      0.0033760712
 2 2 1     -0.1238007774
 2 2 2      0.0887053768
 2 2 3     -0.0158990829
 2 3 1      0.0033760712
 2 3 2     -0.0158990829
 2 3 3     -0.0643540102
 3 1 1      0.0267723878
 3 1 2     -0.0154570453
 3 1 3      0.0484134459
 3 2 1     -0.0154570453
 3 2 2     -0.0267723878
 3 2 3     -0.0838545481
 3 3 1      0.0484134459
 3 3 2     -0.0838545481