nqpoint: 404    
npath: 4      
segment_nqpoint:
- 101
- 101
- 101
- 101
labels:
- [ '$\Gamma$', 'X' ]
- [ 'X', 'K' ]
- [ 'K', '$\Gamma$' ]
- [ '$\Gamma$', 'L' ]
reciprocal_lattice:
- [   0.25011959,  -0.14440661,  -0.10211090 ] # a*
- [   0.00000000,   0.28881323,  -0.10211090 ] # b*
- [   0.00000000,  -0.00000000,   0.30633269 ] # c*
natom: 2      
lattice:
- [     3.998087430433594,    -0.000000000000381,    -0.000000000000269 ] # a
- [     1.999043715266137,     3.462445281334601,     0.000000000000099 ] # b
- [     1.999043715266137,     1.154148427078513,     3.264424717202195 ] # c
points:
- symbol: Na # 1
  coordinates: [  0.000000000000000,  0.000000000000000,  0.000000000000000 ]
  mass: 22.989769
- symbol: Cl # 2
  coordinates: [  0.500000000000000,  0.500000000000000,  0.500000000000000 ]
  mass: 35.453000

phonon:
- q-position: [    0.0001000,    0.0001000,    1.0000000 ]
  distance:    0.0000000
  band:
  - # 1
    frequency:   -0.0075006252
    eigenvector:
    - # atom 1
      - [  0.01228355124060, -0.00000000000000 ]
      - [  0.00709191162966, -0.00000000010182 ]
      - [  0.62703399173839,  0.00000000792548 ]
    - # atom 2
      - [ -0.01525374012859,  0.00000000000000 ]
      - [ -0.00880675098917,  0.00000000012645 ]
      - [ -0.77866357107038, -0.00000000984202 ]
  - # 2
    frequency:   -0.0034712323
    eigenvector:
    - # atom 1
      - [ -0.31359705447721,  0.00000000000000 ]
      - [  0.54316604242105, -0.00000000753785 ]
      - [ -0.00000000013672, -0.00000000000295 ]
    - # atom 2
      - [  0.38943148287675,  0.00000000000000 ]
      - [ -0.67451512802033,  0.00000000936067 ]
      - [  0.00000000017079,  0.00000000000366 ]
  - # 3
    frequency:   -0.0032509635
    eigenvector:
    - # atom 1
      - [  0.54302709784734,  0.00000000000000 ]
      - [  0.31351683478887, -0.00000000435079 ]
      - [ -0.01418367067639, -0.00000000018098 ]
    - # atom 2
      - [ -0.67434265499979,  0.00000000000000 ]
      - [ -0.38933190552893,  0.00000000540291 ]
      - [  0.01761362480169,  0.00000000022475 ]
  - # 4
    frequency:    4.5667714002
    eigenvector:
    - # atom 1
      - [  0.38943242758655,  0.00000000000000 ]
      - [  0.22483666378856,  0.00000000031756 ]
      - [  0.63593874747352,  0.00000000022455 ]
    - # atom 2
      - [  0.31359781524314,  0.00000000000000 ]
      - [  0.18105396869025,  0.00000000025572 ]
      - [  0.51210217644384,  0.00000000018082 ]
  - # 5
    frequency:    4.5667717517
    eigenvector:
    - # atom 1
      - [ -0.38943051313721,  0.00000000000000 ]
      - [  0.67451568789689,  0.00000000031756 ]
      - [  0.00000159318289,  0.00000000022455 ]
    - # atom 2
      - [ -0.31359627357719,  0.00000000000000 ]
      - [  0.54316649327162,  0.00000000025572 ]
      - [  0.00000128294043,  0.00000000018082 ]
  - # 6
    frequency:    7.4038272909
    eigenvector:
    - # atom 1
      - [  0.55073935085244,  0.00000000000000 ]
      - [  0.31796951245593, -0.00000000000000 ]
      - [ -0.44967666845193,  0.00000000000000 ]
    - # atom 2
      - [  0.44349319575116,  0.00000000000000 ]
      - [  0.25605091594147, -0.00000000000000 ]
      - [ -0.36211070708984, -0.00000000000000 ]

- q-position: [    0.0050990,    0.0050990,    1.0000000 ]
  distance:    0.0017683
  band:
  - # 1
    frequency:    0.0548133465
    eigenvector:
    - # atom 1
      - [ -0.31196617260455,  0.00000000000000 ]
      - [ -0.18011375491171,  0.00000000028005 ]
      - [ -0.51337965194653,  0.00000000003505 ]
    - # atom 2
      - [  0.38744699929216, -0.00000000000001 ]
      - [  0.22369263080584, -0.00000000034781 ]
      - [  0.63759227181012, -0.00000000004354 ]
  - # 2
    frequency:    0.0550803862
    eigenvector:
    - # atom 1
      - [ -0.31357703398711,  0.00000000000000 ]
      - [  0.54313135376196, -0.00000000037925 ]
      - [ -0.00000000083113, -0.00000000016322 ]
    - # atom 2
      - [  0.38944761467839,  0.00000000000002 ]
      - [ -0.67454305402832,  0.00000000047099 ]
      - [  0.00000000103323,  0.00000000020270 ]
  - # 3
    frequency:    0.0931436740
    eigenvector:
    - # atom 1
      - [ -0.44461963126230,  0.00000000000000 ]
      - [ -0.25670126380843,  0.00000000007101 ]
      - [  0.36024409281226,  0.00000000009053 ]
    - # atom 2
      - [  0.55215515261552, -0.00000000000000 ]
      - [  0.31878692601112, -0.00000000008815 ]
      - [ -0.44737190512338, -0.00000000011243 ]
  - # 4
    frequency:    4.5669918375
    eigenvector:
    - # atom 1
      - [  0.38944855919985,  0.00000000000000 ]
      - [  0.22484596446457,  0.00000001636957 ]
      - [  0.63596508467912,  0.00000001157505 ]
    - # atom 2
      - [  0.31357779561891,  0.00000000000001 ]
      - [  0.18104240014663,  0.00000001318053 ]
      - [  0.51206946649275,  0.00000000932004 ]
  - # 5
    frequency:    4.5669921856
    eigenvector:
    - # atom 1
      - [ -0.38944663281130,  0.00000000000000 ]
      - [  0.67454362090670,  0.00000001636960 ]
      - [  0.00000160231537,  0.00000001157511 ]
    - # atom 2
      - [ -0.31357624340438,  0.00000000000002 ]
      - [  0.54313181020282,  0.00000001318057 ]
      - [  0.00000129015869,  0.00000000932009 ]
  - # 6
    frequency:    7.4035630032
    eigenvector:
    - # atom 1
      - [  0.55074592538810,  0.00000000000000 ]
      - [  0.31797330826586, -0.00000000000001 ]
      - [ -0.44968204058828,  0.00000000000001 ]
    - # atom 2
      - [  0.44348502936190,  0.00000000000001 ]
      - [  0.25604620107443, -0.00000000000002 ]
      - [ -0.36210403880440, -0.00000000000001 ]

- q-position: [    0.0100980,    0.0100980,    1.0000000 ]
  distance:    0.0035365
  band:
  - # 1
    frequency:    0.1090465788
    eigenvector:
    - # atom 1
      - [  0.31311906908512,  0.00000000000000 ]
      - [  0.18077938280620, -0.00000000048185 ]
      - [  0.51230035305874, -0.00000000025854 ]
    - # atom 2
      - [ -0.38899793919563,  0.00000000000003 ]
      - [ -0.22458806985693,  0.00000000059861 ]
      - [ -0.63644670928748,  0.00000000032120 ]
  - # 2
    frequency:    0.1091777809
    eigenvector:
    - # atom 1
      - [  0.31351877914520,  0.00000000000000 ]
      - [ -0.54303045061322,  0.00000000053180 ]
      - [  0.00000000281118,  0.00000000032308 ]
    - # atom 2
      - [ -0.38949451585587, -0.00000000000005 ]
      - [  0.67462428576824, -0.00000000066065 ]
      - [ -0.00000000349343, -0.00000000040135 ]
  - # 3
    frequency:    0.1846051223
    eigenvector:
    - # atom 1
      - [ -0.44374360952954,  0.00000000000000 ]
      - [ -0.25619549242571,  0.00000000003581 ]
      - [  0.36162324487652,  0.00000000004585 ]
    - # atom 2
      - [  0.55111583002748, -0.00000000000000 ]
      - [  0.31818687283577, -0.00000000004439 ]
      - [ -0.44912421809065, -0.00000000005694 ]
  - # 4
    frequency:    4.5676336799
    eigenvector:
    - # atom 1
      - [ -0.38949545729078,  0.00000000000000 ]
      - [ -0.22487304654528, -0.00000003282334 ]
      - [ -0.63604167602348, -0.00000002320964 ]
    - # atom 2
      - [ -0.31351953897182, -0.00000000000002 ]
      - [ -0.18100877060553, -0.00000002642075 ]
      - [ -0.51197432718380, -0.00000001868230 ]
  - # 5
    frequency:    4.5676340246
    eigenvector:
    - # atom 1
      - [  0.38949353484306,  0.00000000000000 ]
      - [ -0.67462485215341, -0.00000003282339 ]
      - [ -0.00000159845792, -0.00000002320975 ]
    - # atom 2
      - [  0.31351798949216, -0.00000000000003 ]
      - [ -0.54303090651733, -0.00000002642084 ]
      - [ -0.00000128665865, -0.00000001868239 ]
  - # 6
    frequency:    7.4027887307
    eigenvector:
    - # atom 1
      - [  0.55076502046296,  0.00000000000000 ]
      - [  0.31798433281248, -0.00000000000002 ]
      - [ -0.44969763550586,  0.00000000000001 ]
    - # atom 2
      - [  0.44346131314982,  0.00000000000002 ]
      - [  0.25603250851300, -0.00000000000005 ]
      - [ -0.36208467416427, -0.00000000000002 ]

- q-position: [    0.0150970,    0.0150970,    1.0000000 ]
  distance:    0.0053048
  band:
  - # 1
    frequency:    0.1629962560
    eigenvector:
    - # atom 1
      - [  0.31324917009265,  0.00000000000000 ]
      - [  0.18085450138267, -0.00000000068922 ]
      - [  0.51196003103060, -0.00000000043248 ]
    - # atom 2
      - [ -0.38935529798588,  0.00000000000004 ]
      - [ -0.22479439692582,  0.00000000085666 ]
      - [ -0.63634382564312,  0.00000000053755 ]
  - # 2
    frequency:    0.1630820617
    eigenvector:
    - # atom 1
      - [ -0.31342311228250,  0.00000000000000 ]
      - [  0.54286474602175, -0.00000000072258 ]
      - [ -0.00000000615212, -0.00000000047556 ]
    - # atom 2
      - [  0.38957150654299,  0.00000000000007 ]
      - [ -0.67475763167504,  0.00000000089810 ]
      - [  0.00000000764782,  0.00000000059106 ]
  - # 3
    frequency:    0.2758764429
    eigenvector:
    - # atom 1
      - [ -0.44354535966267,  0.00000000000000 ]
      - [ -0.25608103281146,  0.00000000002396 ]
      - [  0.36185223778698,  0.00000000003065 ]
    - # atom 2
      - [  0.55094910584984, -0.00000000000000 ]
      - [  0.31809061458665, -0.00000000002964 ]
      - [ -0.44947349225470, -0.00000000003806 ]
  - # 4
    frequency:    4.5686896329
    eigenvector:
    - # atom 1
      - [  0.38957243330293,  0.00000000000000 ]
      - [  0.22491751855083,  0.00000004979153 ]
      - [  0.63616740140332,  0.00000003520798 ]
    - # atom 2
      - [  0.31342386066259,  0.00000000000002 ]
      - [  0.18095355566550,  0.00000004005895 ]
      - [  0.51181809337935,  0.00000002832596 ]
  - # 5
    frequency:    4.5686899745
    eigenvector:
    - # atom 1
      - [ -0.38957053592650,  0.00000000000000 ]
      - [  0.67475819205797,  0.00000004979161 ]
      - [  0.00000157732660,  0.00000003520814 ]
    - # atom 2
      - [ -0.31342233139059,  0.00000000000005 ]
      - [  0.54286519686768,  0.00000004005908 ]
      - [  0.00000126901096,  0.00000002832610 ]
  - # 6
    frequency:    7.4014994226
    eigenvector:
    - # atom 1
      - [  0.55079627884863,  0.00000000000000 ]
      - [  0.31800237984986, -0.00000000000002 ]
      - [ -0.44972316153936,  0.00000000000002 ]
    - # atom 2
      - [  0.44342248672846,  0.00000000000003 ]
      - [  0.25601009206818, -0.00000000000007 ]
      - [ -0.36205297211065, -0.00000000000003 ]

- q-position: [    0.0200960,    0.0200960,    1.0000000 ]
  distance:    0.0070730
  band:
  - # 1
    frequency:    0.2166849381
    eigenvector:
    - # atom 1
      - [  0.31319586720973,  0.00000000000000 ]
      - [  0.18082373364864, -0.00000000087647 ]
      - [  0.51168089406704, -0.00000000057862 ]
    - # atom 2
      - [ -0.38955865664812,  0.00000000000005 ]
      - [ -0.22491181444499,  0.00000000109016 ]
      - [ -0.63643736338499,  0.00000000071970 ]
  - # 2
    frequency:    0.2167480388
    eigenvector:
    - # atom 1
      - [ -0.31329137682110,  0.00000000000000 ]
      - [  0.54263656680940, -0.00000000090149 ]
      - [ -0.00000001088947, -0.00000000061091 ]
    - # atom 2
      - [  0.38967746132575,  0.00000000000009 ]
      - [ -0.67494114240100,  0.00000000112123 ]
      - [  0.00000001354552,  0.00000000075980 ]
  - # 3
    frequency:    0.3669257272
    eigenvector:
    - # atom 1
      - [ -0.44343672123519,  0.00000000000000 ]
      - [ -0.25601831038618,  0.00000000001801 ]
      - [  0.36189935844869,  0.00000000002298 ]
    - # atom 2
      - [  0.55092310293598, -0.00000000000000 ]
      - [  0.31807560179746, -0.00000000002222 ]
      - [ -0.44962095097335, -0.00000000002854 ]
  - # 4
    frequency:    4.5701477215
    eigenvector:
    - # atom 1
      - [  0.38967836079735,  0.00000000000000 ]
      - [  0.22497873241818,  0.00000006732133 ]
      - [  0.63634042298750,  0.00000004760343 ]
    - # atom 2
      - [  0.31329210332861,  0.00000000000003 ]
      - [  0.18087753228033,  0.00000005412477 ]
      - [  0.51160295881279,  0.00000003827200 ]
  - # 5
    frequency:    4.5701480600
    eigenvector:
    - # atom 1
      - [ -0.38967651160601,  0.00000000000000 ]
      - [  0.67494169071932,  0.00000006732143 ]
      - [  0.00000153730442,  0.00000004760365 ]
    - # atom 2
      - [ -0.31329061327012,  0.00000000000007 ]
      - [  0.54263700764365,  0.00000005412494 ]
      - [  0.00000123595576,  0.00000003827218 ]
  - # 6
    frequency:    7.3996867722
    eigenvector:
    - # atom 1
      - [  0.55083911231986,  0.00000000000000 ]
      - [  0.31802710976602, -0.00000000000003 ]
      - [ -0.44975813841541,  0.00000000000003 ]
    - # atom 2
      - [  0.44336927435873,  0.00000000000005 ]
      - [  0.25597936989218, -0.00000000000009 ]
      - [ -0.36200952399883, -0.00000000000005 ]

- q-position: [    0.0250950,    0.0250950,    1.0000000 ]
  distance:    0.0088413
  band:
  - # 1
    frequency:    0.2700593898
    eigenvector:
    - # atom 1
      - [  0.31306581113884,  0.00000000000000 ]
      - [  0.18074865514782, -0.00000000103086 ]
      - [  0.51138057925257, -0.00000000069608 ]
    - # atom 2
      - [ -0.38973660881366,  0.00000000000006 ]
      - [ -0.22501456690283,  0.00000000128331 ]
      - [ -0.63661875966194,  0.00000000086655 ]
  - # 2
    frequency:    0.2701088888
    eigenvector:
    - # atom 1
      - [ -0.31312542499075,  0.00000000000000 ]
      - [  0.54234912040097, -0.00000000105085 ]
      - [ -0.00000001754105, -0.00000000072185 ]
    - # atom 2
      - [  0.38981083282772,  0.00000000000011 ]
      - [ -0.67517213689163,  0.00000000130813 ]
      - [  0.00000002183790,  0.00000000089857 ]
  - # 3
    frequency:    0.4576930008
    eigenvector:
    - # atom 1
      - [ -0.44334474905661,  0.00000000000000 ]
      - [ -0.25596521022407,  0.00000000001444 ]
      - [  0.36188643680962,  0.00000000001835 ]
    - # atom 2
      - [  0.55094517866174, -0.00000000000000 ]
      - [  0.31808834722365, -0.00000000001775 ]
      - [ -0.44971620491375, -0.00000000002280 ]
  - # 4
    frequency:    4.5719914633
    eigenvector:
    - # atom 1
      - [  0.38981169875053,  0.00000000000000 ]
      - [  0.22505578283977,  0.00000008555302 ]
      - [  0.63655821328429,  0.00000006049520 ]
    - # atom 2
      - [  0.31312612435510,  0.00000000000004 ]
      - [  0.18078176019542,  0.00000006872267 ]
      - [  0.51133194761809,  0.00000004859428 ]
  - # 5
    frequency:    4.5719917988
    eigenvector:
    - # atom 1
      - [ -0.38980990735301,  0.00000000000000 ]
      - [  0.67517267121223,  0.00000008555314 ]
      - [  0.00000148942028,  0.00000006049547 ]
    - # atom 2
      - [ -0.31312468158076,  0.00000000000008 ]
      - [  0.54234954960694,  0.00000006872288 ]
      - [  0.00000119641423,  0.00000004859450 ]
  - # 6
    frequency:    7.3973393161
    eigenvector:
    - # atom 1
      - [  0.55089270756739,  0.00000000000000 ]
      - [  0.31805805299662, -0.00000000000004 ]
      - [ -0.44980190207983,  0.00000000000004 ]
    - # atom 2
      - [  0.44330267820223,  0.00000000000006 ]
      - [  0.25594092058330, -0.00000000000011 ]
      - [ -0.36195514808901, -0.00000000000006 ]

- q-position: [    0.0300940,    0.0300940,    1.0000000 ]
  distance:    0.0106096
  band:
  - # 1
    frequency:    0.3230557279
    eigenvector:
    - # atom 1
      - [  0.31288722531069,  0.00000000000000 ]
      - [  0.18064556006911, -0.00000000113707 ]
      - [  0.51104178867425, -0.00000000077673 ]
    - # atom 2
      - [ -0.38991935495216,  0.00000000000008 ]
      - [ -0.22512008979504,  0.00000000141699 ]
      - [ -0.63685861688265,  0.00000000096796 ]
  - # 2
    frequency:    0.3230961852
    eigenvector:
    - # atom 1
      - [ -0.31292759291391,  0.00000000000000 ]
      - [  0.54200645369530, -0.00000000115368 ]
      - [ -0.00000002567086, -0.00000000079814 ]
    - # atom 2
      - [  0.38996967410817,  0.00000000000014 ]
      - [ -0.67544724369985,  0.00000000143764 ]
      - [  0.00000003199196,  0.00000000099455 ]
  - # 3
    frequency:    0.5481148980
    eigenvector:
    - # atom 1
      - [ -0.44325242930044,  0.00000000000000 ]
      - [ -0.25591190938789,  0.00000000001206 ]
      - [  0.36184440192084,  0.00000000001525 ]
    - # atom 2
      - [  0.55099159662913, -0.00000000000000 ]
      - [  0.31811514664955, -0.00000000001476 ]
      - [ -0.44979553273401, -0.00000000001895 ]
  - # 4
    frequency:    4.5742001083
    eigenvector:
    - # atom 1
      - [  0.38997049399005,  0.00000000000000 ]
      - [  0.22514755729076,  0.00000010457224 ]
      - [  0.63681759349893,  0.00000007394384 ]
    - # atom 2
      - [  0.31292825491070,  0.00000000000005 ]
      - [  0.18066759738690,  0.00000008391308 ]
      - [  0.51100887507592,  0.00000005933552 ]
  - # 5
    frequency:    4.5742004409
    eigenvector:
    - # atom 1
      - [ -0.38996878310865,  0.00000000000000 ]
      - [  0.67544775811640,  0.00000010457237 ]
      - [  0.00000142296873,  0.00000007394415 ]
    - # atom 2
      - [ -0.31292687794050,  0.00000000000010 ]
      - [  0.54200686648358,  0.00000008391333 ]
      - [  0.00000114184784,  0.00000005933578 ]
  - # 6
    frequency:    7.3944425703
    eigenvector:
    - # atom 1
      - [  0.55095603433274,  0.00000000000000 ]
      - [  0.31809461472165, -0.00000000000005 ]
      - [ -0.44985361133970,  0.00000000000004 ]
    - # atom 2
      - [  0.44322396899841,  0.00000000000007 ]
      - [  0.25589547780329, -0.00000000000013 ]
      - [ -0.36189088193429, -0.00000000000007 ]

- q-position: [    0.0350930,    0.0350930,    1.0000000 ]
  distance:    0.0123778
  band:
  - # 1
    frequency:    0.3756092259
    eigenvector:
    - # atom 1
      - [  0.31267174524307,  0.00000000000000 ]
      - [  0.18052116649336, -0.00000000118099 ]
      - [  0.51066186213247, -0.00000000081176 ]
    - # atom 2
      - [ -0.39011556278761,  0.00000000000009 ]
      - [ -0.22523338783754,  0.00000000147348 ]
      - [ -0.63714419044048,  0.00000000101283 ]
  - # 2
    frequency:    0.3756432496
    eigenvector:
    - # atom 1
      - [ -0.31270067126106,  0.00000000000000 ]
      - [  0.54161339996395, -0.00000000119519 ]
      - [ -0.00000003549916, -0.00000000083004 ]
    - # atom 2
      - [  0.39015166918205,  0.00000000000016 ]
      - [ -0.67576245101872,  0.00000000149112 ]
      - [  0.00000004429272,  0.00000000103554 ]
  - # 3
    frequency:    0.6381285712
    eigenvector:
    - # atom 1
      - [ -0.44315503928898,  0.00000000000000 ]
      - [ -0.25585568123847,  0.00000000001036 ]
      - [  0.36178471446516,  0.00000000001303 ]
    - # atom 2
      - [  0.55105335825249, -0.00000000000000 ]
      - [  0.31815080473938, -0.00000000001261 ]
      - [ -0.44987060774459, -0.00000000001619 ]
  - # 4
    frequency:    4.5767489406
    eigenvector:
    - # atom 1
      - [ -0.39015243312699,  0.00000000000000 ]
      - [ -0.22525271373257, -0.00000012443448 ]
      - [ -0.63711478137171, -0.00000008798858 ]
    - # atom 2
      - [ -0.31270128781538, -0.00000000000006 ]
      - [ -0.18053665103175, -0.00000009973241 ]
      - [ -0.51063829808553, -0.00000007052148 ]
  - # 5
    frequency:    4.5767492704
    eigenvector:
    - # atom 1
      - [  0.39015081994077,  0.00000000000000 ]
      - [ -0.67576294132639, -0.00000012443461 ]
      - [ -0.00000134247729, -0.00000008798893 ]
    - # atom 2
      - [  0.31269999060798, -0.00000000000012 ]
      - [ -0.54161379293758, -0.00000009973268 ]
      - [ -0.00000107597485, -0.00000007052177 ]
  - # 6
    frequency:    7.3909792028
    eigenvector:
    - # atom 1
      - [  0.55102785564521,  0.00000000000000 ]
      - [  0.31813608077575, -0.00000000000006 ]
      - [ -0.44991225622183,  0.00000000000005 ]
    - # atom 2
      - [  0.44313467426550,  0.00000000000008 ]
      - [  0.25584392346521, -0.00000000000015 ]
      - [ -0.36181797274680, -0.00000000000008 ]

- q-position: [    0.0400920,    0.0400920,    1.0000000 ]
  distance:    0.0141461
  band:
  - # 1
    frequency:    0.4276571342
    eigenvector:
    - # atom 1
      - [  0.31242625758813,  0.00000000000000 ]
      - [  0.18037945015374, -0.00000000115376 ]
      - [  0.51024303724588, -0.00000000079551 ]
    - # atom 2
      - [ -0.39032714876070,  0.00000000000011 ]
      - [ -0.22535556715877,  0.00000000144141 ]
      - [ -0.63746742329683,  0.00000000099387 ]
  - # 2
    frequency:    0.4276863551
    eigenvector:
    - # atom 1
      - [ -0.31244786837082,  0.00000000000000 ]
      - [  0.54117551648970, -0.00000000116613 ]
      - [ -0.00000004682988, -0.00000000081143 ]
    - # atom 2
      - [  0.39035416669344,  0.00000000000018 ]
      - [ -0.67611316689420,  0.00000000145679 ]
      - [  0.00000005850749,  0.00000000101364 ]
  - # 3
    frequency:    0.7276729302
    eigenvector:
    - # atom 1
      - [ -0.44305174957721,  0.00000000000000 ]
      - [ -0.25579604689547,  0.00000000000909 ]
      - [  0.36171306684001,  0.00000000001135 ]
    - # atom 2
      - [  0.55112580381407, -0.00000000000000 ]
      - [  0.31819263120382, -0.00000000001099 ]
      - [ -0.44994553524210, -0.00000000001410 ]
  - # 4
    frequency:    4.5796096393
    eigenvector:
    - # atom 1
      - [  0.39035486586594,  0.00000000000000 ]
      - [  0.22536971989280,  0.00000014531068 ]
      - [  0.63744544750189,  0.00000010275030 ]
    - # atom 2
      - [  0.31244843232388,  0.00000000000006 ]
      - [  0.18039077217114,  0.00000011630986 ]
      - [  0.51022545601248,  0.00000008224350 ]
  - # 5
    frequency:    4.5796099664
    eigenvector:
    - # atom 1
      - [ -0.39035336571640,  0.00000000000000 ]
      - [  0.67611362933676,  0.00000014531080 ]
      - [  0.00000124944758,  0.00000010275067 ]
    - # atom 2
      - [ -0.31244722725253,  0.00000000000013 ]
      - [  0.54117588663811,  0.00000011631014 ]
      - [  0.00000100008423,  0.00000008224382 ]
  - # 6
    frequency:    7.3869292387
    eigenvector:
    - # atom 1
      - [ -0.55110674001072,  0.00000000000000 ]
      - [ -0.31818162468543,  0.00000000000007 ]
      - [  0.44997666792494, -0.00000000000006 ]
    - # atom 2
      - [ -0.44303656415273, -0.00000000000009 ]
      - [ -0.25578727956519,  0.00000000000017 ]
      - [  0.36173786584603,  0.00000000000009 ]

- q-position: [    0.0450910,    0.0450910,    1.0000000 ]
  distance:    0.0159143
  band:
  - # 1
    frequency:    0.4791399094
    eigenvector:
    - # atom 1
      - [  0.31215609424007,  0.00000000000000 ]
      - [  0.18022349036779, -0.00000000102532 ]
      - [  0.50978974145826, -0.00000000070704 ]
    - # atom 2
      - [ -0.39055333522385,  0.00000000000012 ]
      - [ -0.22548617998539,  0.00000000128280 ]
      - [ -0.63782173123333,  0.00000000088461 ]
  - # 2
    frequency:    0.4791654144
    eigenvector:
    - # atom 1
      - [ -0.31217276939924,  0.00000000000000 ]
      - [  0.54069901199815, -0.00000000103627 ]
      - [ -0.00000006033268, -0.00000000072111 ]
    - # atom 2
      - [  0.39057421987909,  0.00000000000021 ]
      - [ -0.67649428618109,  0.00000000129640 ]
      - [  0.00000007548606,  0.00000000090209 ]
  - # 3
    frequency:    0.8166892620
    eigenvector:
    - # atom 1
      - [ -0.44294332130074,  0.00000000000000 ]
      - [ -0.25573344580070,  0.00000000000810 ]
      - [  0.36163310703772,  0.00000000001004 ]
    - # atom 2
      - [  0.55120578724283, -0.00000000000000 ]
      - [  0.31823880965782, -0.00000000000972 ]
      - [ -0.45002150487038, -0.00000000001248 ]
  - # 4
    frequency:    4.5827506925
    eigenvector:
    - # atom 1
      - [  0.39057484257353,  0.00000000000000 ]
      - [  0.22549687822357,  0.00000016714326 ]
      - [  0.63780477900770,  0.00000011818828 ]
    - # atom 2
      - [  0.31217327136499,  0.00000000000007 ]
      - [  0.18023203362086,  0.00000013359203 ]
      - [  0.50977620269794,  0.00000009446385 ]
  - # 5
    frequency:    4.5827510169
    eigenvector:
    - # atom 1
      - [ -0.39057347550055,  0.00000000000000 ]
      - [  0.67649471594677,  0.00000016714336 ]
      - [  0.00000114004444,  0.00000011818867 ]
    - # atom 2
      - [ -0.31217217444358,  0.00000000000015 ]
      - [  0.54069935549479,  0.00000013359232 ]
      - [  0.00000091119845,  0.00000009446417 ]
  - # 6
    frequency:    7.3822702968
    eigenvector:
    - # atom 1
      - [ -0.55119107537545,  0.00000000000000 ]
      - [ -0.31823031573098,  0.00000000000007 ]
      - [  0.45004553022085, -0.00000000000006 ]
    - # atom 2
      - [ -0.44293163509714, -0.00000000000010 ]
      - [ -0.25572669874670,  0.00000000000019 ]
      - [  0.36165219131472,  0.00000000000010 ]

- q-position: [    0.0500900,    0.0500900,    1.0000000 ]
  distance:    0.0176826
  band:
  - # 1
    frequency:    0.5300019295
    eigenvector:
    - # atom 1
      - [  0.31186608521673,  0.00000000000000 ]
      - [  0.18005607435546, -0.00000000079537 ]
      - [  0.50930762037468, -0.00000000054632 ]
    - # atom 2
      - [ -0.39079205837426,  0.00000000000013 ]
      - [ -0.22562403305824,  0.00000000099662 ]
      - [ -0.63820096021999,  0.00000000068459 ]
  - # 2
    frequency:    0.5300244792
    eigenvector:
    - # atom 1
      - [ -0.31187928828904,  0.00000000000000 ]
      - [  0.54019066702888, -0.00000000080518 ]
      - [ -0.00000007502311, -0.00000000055891 ]
    - # atom 2
      - [  0.39080862733921,  0.00000000000023 ]
      - [ -0.67690026561410,  0.00000000100880 ]
      - [  0.00000009401065,  0.00000000070022 ]
  - # 3
    frequency:    0.9051216463
    eigenvector:
    - # atom 1
      - [ -0.44283131207472,  0.00000000000000 ]
      - [ -0.25566877724376,  0.00000000000731 ]
      - [  0.36154769131699,  0.00000000000899 ]
    - # atom 2
      - [  0.55129072831982, -0.00000000000000 ]
      - [  0.31828785041141, -0.00000000000870 ]
      - [ -0.45009837751463, -0.00000000001116 ]
  - # 4
    frequency:    4.5861378600
    eigenvector:
    - # atom 1
      - [  0.39080916819957,  0.00000000000000 ]
      - [  0.22563233111721,  0.00000019017388 ]
      - [  0.63818754925416,  0.00000013447340 ]
    - # atom 2
      - [  0.31187972402649,  0.00000000000008 ]
      - [  0.18006268758994,  0.00000015176565 ]
      - [  0.50929693054415,  0.00000010731454 ]
  - # 5
    frequency:    4.5861381818
    eigenvector:
    - # atom 1
      - [ -0.39080794303384,  0.00000000000000 ]
      - [  0.67690066069681,  0.00000019017394 ]
      - [  0.00000102342109,  0.00000013447380 ]
    - # atom 2
      - [ -0.31187874218975,  0.00000000000017 ]
      - [  0.54019098231850,  0.00000015176594 ]
      - [  0.00000081672612,  0.00000010731487 ]
  - # 6
    frequency:    7.3769778543
    eigenvector:
    - # atom 1
      - [ -0.55127908466304,  0.00000000000000 ]
      - [ -0.31828112791688,  0.00000000000008 ]
      - [  0.45011739214066, -0.00000000000007 ]
    - # atom 2
      - [ -0.44282209146422, -0.00000000000011 ]
      - [ -0.25566345370074,  0.00000000000021 ]
      - [  0.36156274900851,  0.00000000000011 ]

- q-position: [    0.0550890,    0.0550890,    1.0000000 ]
  distance:    0.0194508
  band:
  - # 1
    frequency:    0.5801919900
    eigenvector:
    - # atom 1
      - [  0.31156093936792,  0.00000000000000 ]
      - [  0.17987992190796, -0.00000000044216 ]
      - [  0.50880310116749, -0.00000000029813 ]
    - # atom 2
      - [ -0.39104054956736,  0.00000000000015 ]
      - [ -0.22576752933870,  0.00000000055493 ]
      - [ -0.63859902152075,  0.00000000037419 ]
  - # 2
    frequency:    0.5802121370
    eigenvector:
    - # atom 1
      - [ -0.31157161916874,  0.00000000000000 ]
      - [  0.53965774489023, -0.00000000045103 ]
      - [ -0.00000009170412, -0.00000000030948 ]
    - # atom 2
      - [  0.39105398126128,  0.00000000000025 ]
      - [ -0.67732520124991,  0.00000000056593 ]
      - [  0.00000011509891,  0.00000000038829 ]
  - # 3
    frequency:    0.9929172756
    eigenvector:
    - # atom 1
      - [ -0.44271774943155,  0.00000000000000 ]
      - [ -0.25560321182099,  0.00000000000666 ]
      - [  0.36145936832226,  0.00000000000812 ]
    - # atom 2
      - [  0.55137824908754, -0.00000000000000 ]
      - [  0.31833838055010, -0.00000000000786 ]
      - [ -0.45017532073519, -0.00000000001008 ]
  - # 4
    frequency:    4.5897346766
    eigenvector:
    - # atom 1
      - [  0.39105443381285,  0.00000000000000 ]
      - [  0.22577411156882,  0.00000021439682 ]
      - [  0.63858819230010,  0.00000015160162 ]
    - # atom 2
      - [  0.31157198359847,  0.00000000000009 ]
      - [  0.17988515588816,  0.00000017082040 ]
      - [  0.50879448770894,  0.00000012078829 ]
  - # 5
    frequency:    4.5897349959
    eigenvector:
    - # atom 1
      - [ -0.39105336037536,  0.00000000000000 ]
      - [  0.67732555971764,  0.00000021439682 ]
      - [  0.00000089876966,  0.00000015160201 ]
    - # atom 2
      - [ -0.31157112447980,  0.00000000000018 ]
      - [  0.53965803049828,  0.00000017082067 ]
      - [  0.00000071609263,  0.00000012078862 ]
  - # 6
    frequency:    7.3710255349
    eigenvector:
    - # atom 1
      - [ -0.55136884266474,  0.00000000000000 ]
      - [ -0.31833294972336,  0.00000000000009 ]
      - [  0.45019068176545, -0.00000000000008 ]
    - # atom 2
      - [ -0.44271032537521, -0.00000000000012 ]
      - [ -0.25559892551917,  0.00000000000023 ]
      - [  0.36147149208499,  0.00000000000012 ]

- q-position: [    0.0600880,    0.0600880,    1.0000000 ]
  distance:    0.0212191
  band:
  - # 1
    frequency:    0.6296636745
    eigenvector:
    - # atom 1
      - [  0.31124538360846,  0.00000000000000 ]
      - [  0.17969776153149,  0.00000000005627 ]
      - [  0.50828314761594,  0.00000000005302 ]
    - # atom 2
      - [ -0.39129562321158,  0.00000000000017 ]
      - [ -0.22591482891568, -0.00000000007079 ]
      - [ -0.63900977524925, -0.00000000006665 ]
  - # 2
    frequency:    0.6296818326
    eigenvector:
    - # atom 1
      - [ -0.31125418028454,  0.00000000000000 ]
      - [  0.53910789878835,  0.00000000004820 ]