nqpoint: 404    
npath: 4      
segment_nqpoint:
- 101
- 101
- 101
- 101
labels:
- [ '$\Gamma$', 'X' ]
- [ 'X', 'K' ]
- [ 'K', '$\Gamma$' ]
- [ '$\Gamma$', 'L' ]
reciprocal_lattice:
- [   0.25011959,  -0.14440661,  -0.10211090 ] # a*
- [   0.00000000,   0.28881323,  -0.10211090 ] # b*
- [   0.00000000,  -0.00000000,   0.30633269 ] # c*
natom: 2      
lattice:
- [     3.998087430433594,    -0.000000000000381,    -0.000000000000269 ] # a
- [     1.999043715266137,     3.462445281334601,     0.000000000000099 ] # b
- [     1.999043715266137,     1.154148427078513,     3.264424717202195 ] # c
points:
- symbol: Na # 1
  coordinates: [  0.000000000000000,  0.000000000000000,  0.000000000000000 ]
  mass: 22.989769
- symbol: Cl # 2
  coordinates: [  0.500000000000000,  0.500000000000000,  0.500000000000000 ]
  mass: 35.453000

phonon:
- q-position: [    0.0001000,    0.0001000,    1.0000000 ]
  distance:    0.0000000
  band:
  - # 1
    frequency:   -0.0075348229
    eigenvector:
    - # atom 1
      - [  0.01661606855224, -0.00000000000000 ]
      - [  0.00959329158801, -0.00000000006727 ]
      - [  0.62690090918006,  0.00000000449309 ]
    - # atom 2
      - [ -0.02063389250971,  0.00000000000000 ]
      - [ -0.01191298331862,  0.00000000008354 ]
      - [ -0.77849820064014, -0.00000000557960 ]
  - # 2
    frequency:   -0.0035788183
    eigenvector:
    - # atom 1
      - [ -0.31359706492324,  0.00000000000000 ]
      - [  0.54316606112732, -0.00000000391195 ]
      - [ -0.00000000012257,  0.00000000000158 ]
    - # atom 2
      - [  0.38943147392151,  0.00000000000000 ]
      - [ -0.67451511327047,  0.00000000485794 ]
      - [  0.00000000015347, -0.00000000000196 ]
  - # 3
    frequency:   -0.0032832314
    eigenvector:
    - # atom 1
      - [  0.54291180257039,  0.00000000000000 ]
      - [  0.31345026867643, -0.00000000225756 ]
      - [ -0.01918638890341, -0.00000000013660 ]
    - # atom 2
      - [ -0.67419947446317,  0.00000000000000 ]
      - [ -0.38924923976907,  0.00000000280349 ]
      - [  0.02382612327007,  0.00000000016963 ]
  - # 4
    frequency:    4.2650443180
    eigenvector:
    - # atom 1
      - [  0.38943187498020,  0.00000000000000 ]
      - [  0.22483760100891,  0.00000000034162 ]
      - [  0.63593869812237,  0.00000000024157 ]
    - # atom 2
      - [  0.31359738790708,  0.00000000000000 ]
      - [  0.18105473360128,  0.00000000027510 ]
      - [  0.51210223773268,  0.00000000019453 ]
  - # 5
    frequency:    4.2650446944
    eigenvector:
    - # atom 1
      - [ -0.38943104849270,  0.00000000000000 ]
      - [  0.67451535889136,  0.00000000034162 ]
      - [  0.00000070486803,  0.00000000024157 ]
    - # atom 2
      - [ -0.31359672233998,  0.00000000000000 ]
      - [  0.54316625891741,  0.00000000027510 ]
      - [  0.00000056760717,  0.00000000019453 ]
  - # 6
    frequency:    7.2216243168
    eigenvector:
    - # atom 1
      - [  0.55073935303957,  0.00000000000000 ]
      - [  0.31796951371922, -0.00000000000000 ]
      - [ -0.44967666692856,  0.00000000000000 ]
    - # atom 2
      - [  0.44349319303489,  0.00000000000000 ]
      - [  0.25605091437369, -0.00000000000000 ]
      - [ -0.36211070898118, -0.00000000000000 ]

- q-position: [    0.0050990,    0.0050990,    1.0000000 ]
  distance:    0.0017683
  band:
  - # 1
    frequency:    0.0321677598
    eigenvector:
    - # atom 1
      - [ -0.31240287777697,  0.00000000000000 ]
      - [ -0.18036588679862, -0.00000000008540 ]
      - [ -0.51304344160102, -0.00000000015093 ]
    - # atom 2
      - [  0.38797420751298, -0.00000000000002 ]
      - [  0.22399701466181,  0.00000000010605 ]
      - [  0.63715019233574,  0.00000000018744 ]
  - # 2
    frequency:    0.0326204098
    eigenvector:
    - # atom 1
      - [ -0.31358437521134,  0.00000000000000 ]
      - [  0.54314406909878,  0.00000000003396 ]
      - [ -0.00000000085865,  0.00000000007847 ]
    - # atom 2
      - [  0.38944170355974,  0.00000000000002 ]
      - [ -0.67453281562473, -0.00000000004219 ]
      - [  0.00000000106762, -0.00000000009747 ]
  - # 3
    frequency:    0.0936156712
    eigenvector:
    - # atom 1
      - [ -0.44430719232661,  0.00000000000000 ]
      - [ -0.25652087710273,  0.00000000003611 ]
      - [  0.36073089018453,  0.00000000005074 ]
    - # atom 2
      - [  0.55178942927556, -0.00000000000000 ]
      - [  0.31857577553964, -0.00000000004480 ]
      - [ -0.44799473691444, -0.00000000006302 ]
  - # 4
    frequency:    4.2657544948
    eigenvector:
    - # atom 1
      - [  0.38944210096130,  0.00000000000000 ]
      - [  0.22484349909353,  0.00000001760865 ]
      - [  0.63595539751610,  0.00000001245120 ]
    - # atom 2
      - [  0.31358469645937,  0.00000000000000 ]
      - [  0.18104740150272,  0.00000001417875 ]
      - [  0.51208149726383,  0.00000001002590 ]
  - # 5
    frequency:    4.2657548675
    eigenvector:
    - # atom 1
      - [ -0.38944126869678,  0.00000000000000 ]
      - [  0.67453306669241,  0.00000001760864 ]
      - [  0.00000070903171,  0.00000001245123 ]
    - # atom 2
      - [ -0.31358402505443,  0.00000000000001 ]
      - [  0.54314427126152,  0.00000001417878 ]
      - [  0.00000057092194,  0.00000001002592 ]
  - # 6
    frequency:    7.2211311168
    eigenvector:
    - # atom 1
      - [  0.55075470825179,  0.00000000000000 ]
      - [  0.31797837905512, -0.00000000000001 ]
      - [ -0.44968920852795,  0.00000000000001 ]
    - # atom 2
      - [  0.44347412207486,  0.00000000000001 ]
      - [  0.25603990374979, -0.00000000000002 ]
      - [ -0.36209513703335, -0.00000000000001 ]

- q-position: [    0.0100980,    0.0100980,    1.0000000 ]
  distance:    0.0035365
  band:
  - # 1
    frequency:    0.0647466404
    eigenvector:
    - # atom 1
      - [  0.31325452403200,  0.00000000000000 ]
      - [  0.18085758773272,  0.00000000022294 ]
      - [  0.51226067654773,  0.00000000020331 ]
    - # atom 2
      - [ -0.38910696968060,  0.00000000000004 ]
      - [ -0.22465101860735, -0.00000000027692 ]
      - [ -0.63630088903011, -0.00000000025255 ]
  - # 2
    frequency:    0.0649673384
    eigenvector:
    - # atom 1
      - [  0.31354765723870,  0.00000000000000 ]
      - [ -0.54308046896445, -0.00000000019701 ]
      - [  0.00000000279553, -0.00000000016680 ]
    - # atom 2
      - [ -0.38947126900518, -0.00000000000005 ]
      - [  0.67458402107445,  0.00000000024475 ]
      - [ -0.00000000347370,  0.00000000020721 ]
  - # 3
    frequency:    0.1855751221
    eigenvector:
    - # atom 1
      - [ -0.44362566700603,  0.00000000000000 ]
      - [ -0.25612739827526,  0.00000000001824 ]
      - [  0.36171131515661,  0.00000000002569 ]
    - # atom 2
      - [  0.55105683386882, -0.00000000000000 ]
      - [  0.31815281138415, -0.00000000002258 ]
      - [ -0.44930513280923, -0.00000000003191 ]
  - # 4
    frequency:    4.2678261457
    eigenvector:
    - # atom 1
      - [  0.38947166069116,  0.00000000000000 ]
      - [  0.22486057688006,  0.00000003534426 ]
      - [  0.63600368087369,  0.00000002499218 ]
    - # atom 2
      - [  0.31354797478953,  0.00000000000000 ]
      - [  0.18102620962544,  0.00000002845425 ]
      - [  0.51202152623966,  0.00000002012020 ]
  - # 5
    frequency:    4.2678265145
    eigenvector:
    - # atom 1
      - [ -0.38947083763430,  0.00000000000000 ]
      - [  0.67458427012600,  0.00000003534425 ]
      - [  0.00000070092223,  0.00000002499223 ]
    - # atom 2
      - [ -0.31354730996068,  0.00000000000002 ]
      - [  0.54308066946507,  0.00000002845429 ]
      - [  0.00000056428313,  0.00000002012025 ]
  - # 6
    frequency:    7.2196892236
    eigenvector:
    - # atom 1
      - [  0.55079944584030,  0.00000000000000 ]
      - [  0.31800420831389, -0.00000000000001 ]
      - [ -0.44972574049655,  0.00000000000001 ]
    - # atom 2
      - [  0.44341855456639,  0.00000000000002 ]
      - [  0.25600782183381, -0.00000000000003 ]
      - [ -0.36204976580253, -0.00000000000002 ]

- q-position: [    0.0150970,    0.0150970,    1.0000000 ]
  distance:    0.0053048
  band:
  - # 1
    frequency:    0.0972418150
    eigenvector:
    - # atom 1
      - [  0.31336045858713,  0.00000000000000 ]
      - [  0.18091875351784,  0.00000000038370 ]
      - [  0.51202829407415,  0.00000000030184 ]
    - # atom 2
      - [ -0.38936053549804,  0.00000000000006 ]
      - [ -0.22479742042018, -0.00000000047676 ]
      - [ -0.63621155825421, -0.00000000037505 ]
  - # 2
    frequency:    0.0973855738
    eigenvector:
    - # atom 1
      - [ -0.31348804914296,  0.00000000000000 ]
      - [  0.54297722027254,  0.00000000036638 ]
      - [ -0.00000000593582,  0.00000000027745 ]
    - # atom 2
      - [  0.38951925350736,  0.00000000000007 ]
      - [ -0.67466712714991, -0.00000000045528 ]
      - [  0.00000000737670, -0.00000000034477 ]
  - # 3
    frequency:    0.2774155511
    eigenvector:
    - # atom 1
      - [ -0.44341717077056,  0.00000000000000 ]
      - [ -0.25600702291761,  0.00000000001222 ]
      - [  0.36182771426169,  0.00000000001718 ]
    - # atom 2
      - [  0.55098530220920, -0.00000000000000 ]
      - [  0.31811151256127, -0.00000000001508 ]
      - [ -0.44960269616659, -0.00000000002135 ]
  - # 4
    frequency:    4.2712468939
    eigenvector:
    - # atom 1
      - [ -0.38951963073733,  0.00000000000000 ]
      - [ -0.22488830203405, -0.00000005363080 ]
      - [ -0.63608204081905, -0.00000003792272 ]
    - # atom 2
      - [ -0.31348835568188, -0.00000000000000 ]
      - [ -0.18099181261798, -0.00000004316248 ]
      - [ -0.51192417489614, -0.00000003052049 ]
  - # 5
    frequency:    4.2712472590
    eigenvector:
    - # atom 1
      - [  0.38951883257842,  0.00000000000000 ]
      - [ -0.67466737017283, -0.00000005363078 ]
      - [ -0.00000067996718, -0.00000003792280 ]
    - # atom 2
      - [  0.31348771037749, -0.00000000000004 ]
      - [ -0.54297741585846, -0.00000004316255 ]
      - [ -0.00000054724156, -0.00000003052056 ]
  - # 6
    frequency:    7.2172979943
    eigenvector:
    - # atom 1
      - [  0.55087313879099,  0.00000000000000 ]
      - [  0.31804675495881, -0.00000000000002 ]
      - [ -0.44978591419328,  0.00000000000002 ]
    - # atom 2
      - [  0.44332699848682,  0.00000000000003 ]
      - [  0.25595496190661, -0.00000000000005 ]
      - [ -0.36197501004917, -0.00000000000003 ]

- q-position: [    0.0200960,    0.0200960,    1.0000000 ]
  distance:    0.0070730
  band:
  - # 1
    frequency:    0.1298857787
    eigenvector:
    - # atom 1
      - [  0.31333731473865,  0.00000000000000 ]
      - [  0.18090539813393,  0.00000000058830 ]
      - [  0.51184964610953,  0.00000000043890 ]
    - # atom 2
      - [ -0.38949685372062,  0.00000000000008 ]
      - [ -0.22487613214448, -0.00000000073129 ]
      - [ -0.63625924750011, -0.00000000054558 ]
  - # 2
    frequency:    0.1299910301
    eigenvector:
    - # atom 1
      - [ -0.31340739963142,  0.00000000000000 ]
      - [  0.54283752449772,  0.00000000057531 ]
      - [ -0.00000001068987,  0.00000000042060 ]
    - # atom 2
      - [  0.38958415305379,  0.00000000000009 ]
      - [ -0.67477952809997, -0.00000000071520 ]
      - [  0.00000001328938, -0.00000000052288 ]
  - # 3
    frequency:    0.3691391202
    eigenvector:
    - # atom 1
      - [ -0.44324981699661,  0.00000000000000 ]
      - [ -0.25591040117112,  0.00000000000922 ]
      - [  0.36179066437414,  0.00000000001290 ]
    - # atom 2
      - [  0.55103676593939, -0.00000000000000 ]
      - [  0.31814122515971, -0.00000000001131 ]
      - [ -0.44976841253424, -0.00000000001603 ]
  - # 4
    frequency:    4.2759963520
    eigenvector:
    - # atom 1
      - [ -0.38958450592828,  0.00000000000000 ]
      - [ -0.22492580748579, -0.00000007256595 ]
      - [ -0.63618802080028, -0.00000005131191 ]
    - # atom 2
      - [ -0.31340768694416, -0.00000000000001 ]
      - [ -0.18094527884493, -0.00000005837689 ]
      - [ -0.51179246173203, -0.00000004127871 ]
  - # 5
    frequency:    4.2759967133
    eigenvector:
    - # atom 1
      - [  0.38958375004337,  0.00000000000000 ]
      - [ -0.67477976077768, -0.00000007256593 ]
      - [ -0.00000064479373, -0.00000005131201 ]
    - # atom 2
      - [  0.31340707542436, -0.00000000000005 ]
      - [ -0.54283771167838, -0.00000005837697 ]
      - [ -0.00000051871374, -0.00000004127880 ]
  - # 6
    frequency:    7.2139563694
    eigenvector:
    - # atom 1
      - [  0.55097508403183,  0.00000000000000 ]
      - [  0.31810561307104, -0.00000000000002 ]
      - [ -0.44986915557645,  0.00000000000003 ]
    - # atom 2
      - [  0.44320029112402,  0.00000000000004 ]
      - [  0.25588180737658, -0.00000000000006 ]
      - [ -0.36187155341506, -0.00000000000005 ]

- q-position: [    0.0250950,    0.0250950,    1.0000000 ]
  distance:    0.0088413
  band:
  - # 1
    frequency:    0.1627753358
    eigenvector:
    - # atom 1
      - [  0.31326446154520,  0.00000000000000 ]
      - [  0.18086334486982,  0.00000000084742 ]
      - [  0.51166619929437,  0.00000000061753 ]
    - # atom 2
      - [ -0.38960930866700,  0.00000000000010 ]
      - [ -0.22494106867747, -0.00000000105393 ]
      - [ -0.63636281344624, -0.00000000076803 ]
  - # 2
    frequency:    0.1628574610
    eigenvector:
    - # atom 1
      - [ -0.31330822889098,  0.00000000000000 ]
      - [  0.54266574718981,  0.00000000083703 ]
      - [ -0.00000001673329,  0.00000000060291 ]
    - # atom 2
      - [  0.38966391938826,  0.00000000000012 ]
      - [ -0.67491767680444, -0.00000000104109 ]
      - [  0.00000002081255, -0.00000000074990 ]
  - # 3
    frequency:    0.4607188847
    eigenvector:
    - # atom 1
      - [ -0.44307050932466,  0.00000000000000 ]
      - [ -0.25580687783845,  0.00000000000741 ]
      - [  0.36168984916153,  0.00000000001032 ]
    - # atom 2
      - [  0.55114287725070, -0.00000000000000 ]
      - [  0.31820248855391, -0.00000000000904 ]
      - [ -0.44991168373890, -0.00000000001283 ]
  - # 4
    frequency:    4.2820463143
    eigenvector:
    - # atom 1
      - [ -0.38966424607176,  0.00000000000000 ]
      - [ -0.22497189726009, -0.00000009234812 ]
      - [ -0.63631827643059, -0.00000006530002 ]
    - # atom 2
      - [ -0.31330849528588, -0.00000000000001 ]
      - [ -0.18088805253091, -0.00000007425228 ]
      - [ -0.51163050250174, -0.00000005250431 ]
  - # 5
    frequency:    4.2820466719
    eigenvector:
    - # atom 1
      - [  0.38966353419260,  0.00000000000000 ]
      - [ -0.67491789919684, -0.00000009234808 ]
      - [ -0.00000060817904, -0.00000006530014 ]
    - # atom 2
      - [  0.31330791917677, -0.00000000000006 ]
      - [ -0.54266592600305, -0.00000007425238 ]
      - [ -0.00000048900350, -0.00000005250442 ]
  - # 6
    frequency:    7.2096628835
    eigenvector:
    - # atom 1
      - [  0.55110430960267,  0.00000000000000 ]
      - [  0.31818022148914, -0.00000000000003 ]
      - [ -0.44997467105738,  0.00000000000003 ]
    - # atom 2
      - [  0.44303959184891,  0.00000000000004 ]
      - [  0.25578902760682, -0.00000000000008 ]
      - [ -0.36174034252153, -0.00000000000006 ]

- q-position: [    0.0300940,    0.0300940,    1.0000000 ]
  distance:    0.0106096
  band:
  - # 1
    frequency:    0.1959819925
    eigenvector:
    - # atom 1
      - [  0.31316401308159,  0.00000000000000 ]
      - [  0.18080536197699,  0.00000000118179 ]
      - [  0.51146758571987,  0.00000000085090 ]
    - # atom 2
      - [ -0.38971892925466,  0.00000000000012 ]
      - [ -0.22500437192803, -0.00000000147068 ]
      - [ -0.63649887630912, -0.00000000105891 ]
  - # 2
    frequency:    0.1960486938
    eigenvector:
    - # atom 1
      - [ -0.31319367088777,  0.00000000000000 ]
      - [  0.54246731585327,  0.00000000117314 ]
      - [ -0.00000002455017,  0.00000000083873 ]
    - # atom 2
      - [  0.38975601153478,  0.00000000000014 ]
      - [ -0.67507717130658, -0.00000000146002 ]
      - [  0.00000003055283, -0.00000000104384 ]
  - # 3
    frequency:    0.5521230577
    eigenvector:
    - # atom 1
      - [ -0.44286730864358,  0.00000000000000 ]
      - [ -0.25568955987041,  0.00000000000622 ]
      - [  0.36154838708960,  0.00000000000859 ]
    - # atom 2
      - [  0.55128575170070, -0.00000000000000 ]
      - [  0.31828497715598, -0.00000000000752 ]
      - [ -0.45005872171261, -0.00000000001069 ]
  - # 4
    frequency:    4.2893610250
    eigenvector:
    - # atom 1
      - [ -0.38975629904536,  0.00000000000000 ]
      - [ -0.22502512276216, -0.00000011303066 ]
      - [ -0.63646865771043, -0.00000007992479 ]
    - # atom 2
      - [ -0.31319390574691, -0.00000000000001 ]
      - [ -0.18082195788072, -0.00000009082732 ]
      - [ -0.51144341444950, -0.00000006422463 ]
  - # 5
    frequency:    4.2893613787
    eigenvector:
    - # atom 1
      - [  0.38975565444961,  0.00000000000000 ]
      - [ -0.67507737746944, -0.00000011303059 ]
      - [ -0.00000055253469, -0.00000007992493 ]
    - # atom 2
      - [  0.31319338394851, -0.00000000000007 ]
      - [ -0.54246748151745, -0.00000009082743 ]
      - [ -0.00000044399542, -0.00000006422476 ]
  - # 6
    frequency:    7.2044156803
    eigenvector:
    - # atom 1
      - [  0.55125958453372,  0.00000000000000 ]
      - [  0.31826986951237, -0.00000000000003 ]
      - [ -0.45010145556614,  0.00000000000004 ]
    - # atom 2
      - [  0.44284637209622,  0.00000000000005 ]
      - [  0.25567747213057, -0.00000000000009 ]
      - [ -0.36158257878895, -0.00000000000007 ]

- q-position: [    0.0350930,    0.0350930,    1.0000000 ]
  distance:    0.0123778
  band:
  - # 1
    frequency:    0.2295669589
    eigenvector:
    - # atom 1
      - [  0.31304612969836,  0.00000000000000 ]
      - [  0.18073731529428,  0.00000000160563 ]
      - [  0.51125451432926,  0.00000000114840 ]
    - # atom 2
      - [ -0.38983079551103,  0.00000000000014 ]
      - [ -0.22506897455750, -0.00000000199946 ]
      - [ -0.63665600812520, -0.00000000143009 ]
  - # 2
    frequency:    0.2296226455
    eigenvector:
    - # atom 1
      - [ -0.31306740061600,  0.00000000000000 ]
      - [  0.54224859600675,  0.00000000159824 ]
      - [ -0.00000003396908,  0.00000000113800 ]
    - # atom 2
      - [  0.38985745587935,  0.00000000000016 ]
      - [ -0.67525286144934, -0.00000000199036 ]
      - [  0.00000004230229, -0.00000000141721 ]
  - # 3
    frequency:    0.6433185632
    eigenvector:
    - # atom 1
      - [ -0.44263740230966,  0.00000000000000 ]
      - [ -0.25555682338657,  0.00000000000536 ]
      - [  0.36137521239133,  0.00000000000736 ]
    - # atom 2
      - [  0.55145822001035, -0.00000000000000 ]
      - [  0.31838455178097, -0.00000000000643 ]
      - [ -0.45021761930925, -0.00000000000916 ]
  - # 4
    frequency:    4.2978975151
    eigenvector:
    - # atom 1
      - [  0.38985769790775,  0.00000000000000 ]
      - [  0.22508375590077,  0.00000013475081 ]
      - [  0.63663430895890,  0.00000009528326 ]
    - # atom 2
      - [  0.31306759872745,  0.00000000000001 ]
      - [  0.18074910756217,  0.00000010820902 ]
      - [  0.51123719896987,  0.00000007651536 ]
  - # 5
    frequency:    4.2978978650
    eigenvector:
    - # atom 1
      - [ -0.38985713077735,  0.00000000000000 ]
      - [  0.67525304914679,  0.00000013475071 ]
      - [  0.00000048855700,  0.00000009528341 ]
    - # atom 2
      - [ -0.31306713955050,  0.00000000000008 ]
      - [  0.54224874673276,  0.00000010820913 ]
      - [  0.00000039232488,  0.00000007651549 ]
  - # 6
    frequency:    7.1982125328
    eigenvector:
    - # atom 1
      - [ -0.55143943130058,  0.00000000000000 ]
      - [ -0.31837370409161,  0.00000000000004 ]
      - [  0.45024830272111, -0.00000000000005 ]
    - # atom 2
      - [ -0.44262240263030, -0.00000000000006 ]
      - [ -0.25554816329912,  0.00000000000010 ]
      - [  0.36139970803926,  0.00000000000008 ]

- q-position: [    0.0400920,    0.0400920,    1.0000000 ]
  distance:    0.0141461
  band:
  - # 1
    frequency:    0.2635843828
    eigenvector:
    - # atom 1
      - [  0.31291764186535,  0.00000000000000 ]
      - [  0.18066314837288,  0.00000000213911 ]
      - [  0.51103153449342,  0.00000000152397 ]
    - # atom 2
      - [ -0.38994492035200,  0.00000000000016 ]
      - [ -0.22513488400189, -0.00000000266567 ]
      - [ -0.63682602811117, -0.00000000189913 ]
  - # 2
    frequency:    0.2636318156
    eigenvector:
    - # atom 1
      - [ -0.31293355185760,  0.00000000000000 ]
      - [  0.54201674759314,  0.00000000213266 ]
      - [ -0.00000004497422,  0.00000000151490 ]
    - # atom 2
      - [  0.38996491654628,  0.00000000000019 ]
      - [ -0.67543896934763, -0.00000000265775 ]
      - [  0.00000005604617, -0.00000000188790 ]
  - # 3
    frequency:    0.7342719425
    eigenvector:
    - # atom 1
      - [ -0.44238093887654,  0.00000000000000 ]
      - [ -0.25540875415432,  0.00000000000473 ]
      - [  0.36117511660672,  0.00000000000643 ]
    - # atom 2
      - [  0.55165620583526, -0.00000000000000 ]
      - [  0.31849885895021, -0.00000000000560 ]
      - [ -0.45039084779227, -0.00000000000801 ]
  - # 4
    frequency:    4.3076060072
    eigenvector:
    - # atom 1
      - [  0.38996510694710,  0.00000000000000 ]
      - [  0.22514587043400,  0.00000015760588 ]
      - [  0.63680978273131,  0.00000011144425 ]
    - # atom 2
      - [  0.31293370817799,  0.00000000000001 ]
      - [  0.18067188797503,  0.00000012647337 ]
      - [  0.51101860650021,  0.00000008943021 ]
  - # 5
    frequency:    4.3076063533
    eigenvector:
    - # atom 1
      - [ -0.38996462714998,  0.00000000000000 ]
      - [  0.67543913643044,  0.00000015760574 ]
      - [  0.00000041650603,  0.00000011144439 ]
    - # atom 2
      - [ -0.31293331962823,  0.00000000000010 ]
      - [  0.54201688167066,  0.00000012647347 ]
      - [  0.00000033423062,  0.00000008943034 ]
  - # 6
    frequency:    7.1910508689
    eigenvector:
    - # atom 1
      - [ -0.55164214069037,  0.00000000000000 ]
      - [ -0.31849073841237,  0.00000000000004 ]
      - [  0.45041381696716, -0.00000000000005 ]
    - # atom 2
      - [ -0.44236973819487, -0.00000000000007 ]
      - [ -0.25540228741929,  0.00000000000012 ]
      - [  0.36119340796250,  0.00000000000009 ]

- q-position: [    0.0450910,    0.0450910,    1.0000000 ]
  distance:    0.0159143
  band:
  - # 1
    frequency:    0.2980820115
    eigenvector:
    - # atom 1
      - [  0.31278433209308,  0.00000000000000 ]
      - [  0.18058620022156,  0.00000000279962 ]
      - [  0.51080495118547,  0.00000000198974 ]
    - # atom 2
      - [ -0.39005927219128,  0.00000000000019 ]
      - [ -0.22520092792223, -0.00000000349128 ]
      - [ -0.63700172211040, -0.00000000248133 ]
  - # 2
    frequency:    0.2981230355
    eigenvector:
    - # atom 1
      - [ -0.31279662628294,  0.00000000000000 ]
      - [  0.54177956725952,  0.00000000279391 ]
      - [ -0.00000005790130,  0.00000000198170 ]
    - # atom 2
      - [  0.39007477138899,  0.00000000000021 ]
      - [ -0.67562922066169, -0.00000000348429 ]
      - [  0.00000007220725, -0.00000000247139 ]
  - # 3
    frequency:    0.8249496643
    eigenvector:
    - # atom 1
      - [ -0.44209933345932,  0.00000000000000 ]
      - [ -0.25524616919074,  0.00000000000424 ]
      - [  0.36095147418931,  0.00000000000570 ]
    - # atom 2
      - [  0.55187666057450, -0.00000000000000 ]
      - [  0.31862613855316, -0.00000000000496 ]
      - [ -0.45057867358841, -0.00000000000711 ]
  - # 4
    frequency:    4.3184303811
    eigenvector:
    - # atom 1
      - [  0.39007489844265,  0.00000000000000 ]
      - [  0.22520938416126,  0.00000018169474 ]
      - [  0.63698916366658,  0.00000012847765 ]
    - # atom 2
      - [  0.31279673133303,  0.00000000000001 ]
      - [  0.18059290539596,  0.00000014569902 ]
      - [  0.51079498788648,  0.00000010302480 ]
  - # 5
    frequency:    4.3184307233
    eigenvector:
    - # atom 1
      - [ -0.39007452647295,  0.00000000000000 ]
      - [  0.67562936206388,  0.00000018169454 ]
      - [  0.00000032770915,  0.00000012847778 ]
    - # atom 2
      - [ -0.31279642988878,  0.00000000000011 ]
      - [  0.54177968064762,  0.00000014569910 ]
      - [  0.00000026278504,  0.00000010302492 ]
  - # 6
    frequency:    7.1829278034
    eigenvector:
    - # atom 1
      - [ -0.55186578888329,  0.00000000000000 ]
      - [ -0.31861986175674,  0.00000000000005 ]
      - [  0.45059642752266, -0.00000000000006 ]
    - # atom 2
      - [ -0.44209069966782, -0.00000000000008 ]
      - [ -0.25524118445055,  0.00000000000013 ]
      - [  0.36096557354637,  0.00000000000010 ]

- q-position: [    0.0500900,    0.0500900,    1.0000000 ]
  distance:    0.0176826
  band:
  - # 1
    frequency:    0.3331011323
    eigenvector:
    - # atom 1
      - [  0.31265164411336,  0.00000000000000 ]
      - [  0.18050961284626,  0.00000000359932 ]
      - [  0.51058201042304,  0.00000000255417 ]
    - # atom 2
      - [ -0.39017085490218,  0.00000000000021 ]
      - [ -0.22526537534351, -0.00000000449174 ]
      - [ -0.63717615648415, -0.00000000318748 ]
  - # 2
    frequency:    0.3331370420
    eigenvector:
    - # atom 1
      - [ -0.31266139606541,  0.00000000000000 ]
      - [  0.54154532158659,  0.00000000359420 ]
      - [ -0.00000007208978,  0.00000000254697 ]
    - # atom 2
      - [  0.39018319033199,  0.00000000000024 ]
      - [ -0.67581698266649, -0.00000000448549 ]
      - [  0.00000008996493, -0.00000000317858 ]
  - # 3
    frequency:    0.9153182499
    eigenvector:
    - # atom 1
      - [ -0.44179467866758,  0.00000000000000 ]
      - [ -0.25507027666459,  0.00000000000385 ]
      - [  0.36070715545295,  0.00000000000512 ]
    - # atom 2
      - [  0.55211687600967,  0.00000000000000 ]
      - [  0.31876482699924, -0.00000000000444 ]
      - [ -0.45078032805544, -0.00000000000639 ]
  - # 4
    frequency:    4.3303086945
    eigenvector:
    - # atom 1
      - [  0.39018325239571,  0.00000000000000 ]
      - [  0.22527206948442,  0.00000020719626 ]
      - [  0.63716619809991,  0.00000014650995 ]
    - # atom 2
      - [  0.31266144847982,  0.00000000000002 ]
      - [  0.18051490194721,  0.00000016603043 ]
      - [  0.51057413670142,  0.00000011740128 ]
  - # 5
    frequency:    4.3303090328
    eigenvector:
    - # atom 1
      - [ -0.39018298959460,  0.00000000000000 ]
      - [  0.67581709856218,  0.00000020719598 ]
      - [  0.00000023780815,  0.00000014651006 ]
    - # atom 2
      - [ -0.31266123521190,  0.00000000000012 ]
      - [  0.54154541445532,  0.00000016603048 ]
      - [  0.00000019055900,  0.00000011740139 ]
  - # 6
    frequency:    7.1738401768
    eigenvector:
    - # atom 1
      - [ -0.55210825652727,  0.00000000000000 ]
      - [ -0.31875985051625,  0.00000000000006 ]
      - [  0.45079440395395, -0.00000000000007 ]
    - # atom 2
      - [ -0.44178785386523, -0.00000000000009 ]
      - [ -0.25506633634487,  0.00000000000014 ]
      - [  0.36071830058626,  0.00000000000011 ]

- q-position: [    0.0550890,    0.0550890,    1.0000000 ]
  distance:    0.0194508
  band:
  - # 1
    frequency:    0.3686763005
    eigenvector:
    - # atom 1
      - [  0.31252490022273,  0.00000000000000 ]
      - [  0.18043645944013,  0.00000000455625 ]
      - [  0.51037047763206,  0.00000000322998 ]
    - # atom 2
      - [ -0.39027618148539,  0.00000000000023 ]
      - [ -0.22532621350015, -0.00000000568978 ]
      - [ -0.63734248727193, -0.00000000403357 ]
  - # 2
    frequency:    0.3687080399
    eigenvector:
    - # atom 1
      - [ -0.31253280571942,  0.00000000000000 ]
      - [  0.54132257436079,  0.00000000455161 ]
      - [ -0.00000008779695,  0.00000000322345 ]
    - # atom 2
      - [  0.39028621724770,  0.00000000000026 ]
      - [ -0.67599540269370, -0.00000000568415 ]
      - [  0.00000010964055, -0.00000000402552 ]
  - # 3
    frequency:    1.0053443299
    eigenvector:
    - # atom 1
      - [ -0.44146949755647,  0.00000000000000 ]
      - [ -0.25488253326242,  0.00000000000354 ]
      - [  0.36044487531929,  0.00000000000464 ]
    - # atom 2
      - [  0.55237422613022,  0.00000000000000 ]
      - [  0.31891340816053, -0.00000000000402 ]
      - [ -0.45099448025836, -0.00000000000580 ]
  - # 4
    frequency:    4.3431737525
    eigenvector:
    - # atom 1
      - [  0.39028620977232,  0.00000000000000 ]
      - [  0.22533164690235,  0.00000023422153 ]
      - [  0.63733442538205,  0.00000016561971 ]
    - # atom 2
      - [  0.31253280182132,  0.00000000000002 ]
      - [  0.18044073601032,  0.00000018755959 ]
      - [  0.51036412703323,  0.00000013262470 ]
  - # 5
    frequency:    4.3431740869
    eigenvector:
    - # atom 1
      - [ -0.39028606289611,  0.00000000000000 ]
      - [  0.67599549180856,  0.00000023422115 ]
      - [  0.00000014238490,  0.00000016561978 ]
    - # atom 2
      - [ -0.31253268211926,  0.00000000000014 ]
      - [  0.54132264572132,  0.00000018755959 ]
      - [  0.00000011401745,  0.00000013262478 ]
  - # 6
    frequency:    7.1637846011
    eigenvector:
    - # atom 1
      - [ -0.55236724956116,  0.00000000000000 ]
      - [ -0.31890938021407,  0.00000000000006 ]
      - [  0.45100587317742, -0.00000000000007 ]
    - # atom 2
      - [ -0.44146399116096, -0.00000000000010 ]
      - [ -0.25487935412535,  0.00000000000016 ]
      - [  0.36045386741173,  0.00000000000012 ]

- q-position: [    0.0600880,    0.0600880,    1.0000000 ]
  distance:    0.0212191
  band:
  - # 1
    frequency:    0.4048350345
    eigenvector:
    - # atom 1
      - [  0.31240934277072,  0.00000000000000 ]
      - [  0.18036976735460,  0.00000000568728 ]
      - [  0.51017836059506,  0.00000000402902 ]
    - # atom 2
      - [ -0.39037152822425,  0.00000000000025 ]
      - [ -0.22538129335010, -0.00000000710654 ]
      - [ -0.63749394704127, -0.00000000503449 ]
  - # 2
    frequency:    0.4048633136
    eigenvector:
    - # atom 1
      - [ -0.31241587224335,  0.00000000000000 ]
      - [  0.54112001459871,  0.00000000568304 ]