128  
2    

1    
  0.0300000000000000  -0.0000000000000029  -0.0000000000000020
  -0.0576415593    0.0000000098    0.0000000084
   0.0076782277    0.0000006470    0.0000004569
   0.0013576465    0.0000000000    0.0000000000
   0.0076908787   -0.0000006430   -0.0000004553
  -0.0007560977    0.0048666288    0.0016414174
   0.0011229877    0.0007259813   -0.0001372253
   0.0011244161   -0.0007107453    0.0001267360
  -0.0007047004   -0.0048480670   -0.0016297728
   0.0003271972    0.0005961075    0.0004073923
  -0.0001197048    0.0000210286    0.0000051680
   0.0003271965   -0.0005961084   -0.0004073923
  -0.0001205790   -0.0000210326   -0.0000051680
  -0.0007042700    0.0048474394    0.0016293167
  -0.0007556526   -0.0048659664   -0.0016409613
   0.0011225502   -0.0007253327    0.0001376814
   0.0011239794    0.0007101039   -0.0001271920
  -0.0007561479    0.0031697239    0.0040412258
   0.0011229350    0.0001125863    0.0007302646
   0.0011243639   -0.0001174573   -0.0007122811
  -0.0007047532   -0.0031526181   -0.0040274845
   0.0000111941    0.0007557042    0.0005344463
   0.0001367800    0.0000009837    0.0000007782
   0.0000203717   -0.0007522095   -0.0005318099
  -0.0001090163   -0.0000596858   -0.0000421219
  -0.0001798673    0.0006465363   -0.0001893864
  -0.0001855690   -0.0006329328    0.0001870185
   0.0002433282   -0.0001819524    0.0001480515
   0.0002511768    0.0001783632   -0.0001510852
  -0.0062037795   -0.0000044431    0.0000063015
   0.0024389505   -0.0014800200    0.0020944514
   0.0005598591    0.0000040519   -0.0000057116
   0.0022833943    0.0013645905   -0.0019311718
   0.0003271970    0.0005827955    0.0004262178
  -0.0001197046    0.0000118821    0.0000181035
   0.0003271964   -0.0005827960   -0.0004262191
  -0.0001205789   -0.0000118832   -0.0000181068
  -0.0001798149    0.0000369093    0.0006727379
  -0.0001855168   -0.0000347025   -0.0006590256
   0.0002433804    0.0000788859   -0.0002208481
   0.0002512290   -0.0000830378    0.0002185730
  -0.0006825915    0.0000000000    0.0000000000
   0.0003795974    0.0000006450    0.0000004561
   0.0023654940   -0.0000000000   -0.0000000000
   0.0003938746   -0.0000006450   -0.0000004561
  -0.0001859555    0.0000353471    0.0006594832
   0.0002438169   -0.0000782408    0.0002213045
   0.0002516669    0.0000823929   -0.0002190287
  -0.0001802506   -0.0000375545   -0.0006731924
  -0.0007042157    0.0031519791    0.0040270450
  -0.0007556010   -0.0031690730   -0.0040407531
   0.0011226025   -0.0001119400   -0.0007298051
   0.0011240312    0.0001168136    0.0007118284
  -0.0062036750    0.0000044437   -0.0000063036
   0.0024390547    0.0014813097   -0.0020935384
   0.0005599635   -0.0000040518    0.0000057116
   0.0022834990   -0.0013658807    0.0019302605
  -0.0001859033    0.0006335792   -0.0001865633
   0.0002438692    0.0001825978   -0.0001475955
   0.0002517191   -0.0001790078    0.0001506291
  -0.0001801984   -0.0006471799    0.0001889294
   0.0000204763    0.0007522075    0.0005318087
  -0.0001080377    0.0000596766    0.0000421150
   0.0000112984   -0.0007557062   -0.0005344475
   0.0001360102   -0.0000009836   -0.0000007780
  -0.0019097137   -0.0020450246   -0.0014461227
  -0.0008153467   -0.0000083392   -0.0000059689
  -0.0019030868    0.0020264387    0.0014328363
   0.0068898025    0.0000319397    0.0000225122
  -0.0000452854   -0.0004470694   -0.0000694533
  -0.0000462890    0.0004418183    0.0000687721
   0.0001787768    0.0005085332    0.0001480711
   0.0001921835   -0.0005121997   -0.0001629233
   0.0016177683   -0.0000233063    0.0000201539
  -0.0008099524    0.0016377178   -0.0002743811
  -0.0004723331   -0.0000122379   -0.0000037024
  -0.0007987930   -0.0016220286    0.0002552309
   0.0109515517   -0.0023325838    0.0032975181
  -0.0021746335    0.0003108241   -0.0004403261
  -0.0021523223   -0.0002824479    0.0004001462
   0.0097956882    0.0017029006   -0.0024070623
  -0.0000452882   -0.0002144378   -0.0003984221
  -0.0000462918    0.0002121782    0.0003935540
   0.0001787741    0.0003091804    0.0004300206
   0.0001921804   -0.0003242725   -0.0004286710
   0.0003235800   -0.0000027920   -0.0000020212
  -0.0000996044    0.0001976004    0.0001396776
  -0.0002412323   -0.0000208824   -0.0000148130
  -0.0001195225   -0.0002197787   -0.0001554540
   0.0002245514    0.0008461806   -0.0011979130
  -0.0004124379    0.0000980037   -0.0001393307
  -0.0003577275   -0.0000669210    0.0000953668
   0.0002146768   -0.0008440948    0.0011949566
  -0.0008096266   -0.0002881659   -0.0016361646
  -0.0004732708    0.0000075445    0.0000103114
  -0.0007984655    0.0003009405    0.0016149974
   0.0016180421   -0.0000112576    0.0000286837
   0.0016176950    0.0000112583   -0.0000286986
  -0.0008100269    0.0002872421    0.0016355081
  -0.0004724073   -0.0000075447   -0.0000103113
  -0.0007988674   -0.0003000172   -0.0016143477
   0.0002244799   -0.0008473400    0.0011970931
  -0.0004125092   -0.0000986913    0.0001388445
  -0.0003577988    0.0000676088   -0.0000948805
   0.0002146057    0.0008452542   -0.0011941368
  -0.0000993458   -0.0001985240   -0.0001403307
  -0.0002422385    0.0000208820    0.0000148128
  -0.0001192644    0.0002207021    0.0001561069
   0.0003237841    0.0000027917    0.0000020210
   0.0001780951   -0.0003094138   -0.0004301838
   0.0001915067    0.0003245109    0.0004288414
  -0.0000447530    0.0002142025    0.0003982562
  -0.0000457593   -0.0002119418   -0.0003933863
   0.0109514728    0.0023314241   -0.0032983381
  -0.0021747102   -0.0003115118    0.0004398401
  -0.0021523995    0.0002831355   -0.0003996597
   0.0097956131   -0.0017017415    0.0024078820
  -0.0008097005   -0.0016386443    0.0002737293
  -0.0004733449    0.0000122380    0.0000037022
  -0.0007985393    0.0016229491   -0.0002545767
   0.0016179671    0.0000232918   -0.0000201492
   0.0001780925   -0.0005087649   -0.0001482367
   0.0001915037    0.0005124398    0.0001630912
  -0.0000447558    0.0004468345    0.0000692866
  -0.0000457622   -0.0004415814   -0.0000686052
   0.0068894484   -0.0000319782   -0.0000225402
  -0.0019101143    0.0020440962    0.0014454665
  -0.0008144889    0.0000083390    0.0000059688
  -0.0019035000   -0.0020255200   -0.0014321864

65   
  0.0300000000000000  -0.0000000000000029  -0.0000000000000020
  -0.0018839106   -0.0020059606   -0.0014184280
   0.0068821120   -0.0001124679   -0.0000795272
  -0.0019075592    0.0020511099    0.0014503537
  -0.0008160845    0.0000147619    0.0000104383
   0.0097281062   -0.0016479528    0.0023305585
   0.0110292636    0.0024028059   -0.0033967143
  -0.0021589051   -0.0008619972    0.0012190483
  -0.0021709285    0.0008288710   -0.0011735689
   0.0016188181    0.0000157301    0.0000031955
  -0.0007991184   -0.0010705734    0.0006624703
  -0.0004748244   -0.0000067603   -0.0000152728
  -0.0008109464    0.0010929012   -0.0006431009
  -0.0000439234   -0.0004404844   -0.0000669762
   0.0001869795   -0.0010651328   -0.0005432795
   0.0001832500    0.0010513984    0.0005430083
  -0.0000482020    0.0004477560    0.0000709784
   0.0097280483    0.0016479203   -0.0023304995
   0.0110292155   -0.0024015439    0.0033976896
  -0.0021589579    0.0008619667   -0.0012189876
  -0.0021709800   -0.0008301911    0.0011727179
   0.0068816563    0.0001131029    0.0000800612
  -0.0019071477   -0.0020504870   -0.0014498321
  -0.0008156979   -0.0000154369   -0.0000108331
  -0.0018843839    0.0020052892    0.0014180351
   0.0001831955   -0.0010514312   -0.0005429481
  -0.0000473785   -0.0004477875   -0.0000709175
  -0.0000439759    0.0004404538    0.0000670374
   0.0001860458    0.0010650993    0.0005433400
  -0.0008105663   -0.0010935760    0.0006427060
   0.0016191965   -0.0000151057   -0.0000026822
  -0.0007996130    0.0010711922   -0.0006619540
  -0.0004753139    0.0000060851    0.0000148781
   0.0016188192    0.0000082569    0.0000137646
  -0.0007991185    0.0002677247   -0.0012301695
  -0.0004748243   -0.0000166528   -0.0000012827
  -0.0008109469   -0.0002420211    0.0012447645
   0.0001832474   -0.0008624208   -0.0008102672
  -0.0000473262   -0.0002161717   -0.0003984900
  -0.0000439237    0.0002099738    0.0003929668
   0.0001860984    0.0008672509    0.0008231207
  -0.0001224967   -0.0002102311   -0.0001486558
   0.0003241029   -0.0000066382   -0.0000046939
  -0.0000976790    0.0002101509    0.0001485992
  -0.0002422432   -0.0000035656   -0.0000025213
   0.0002146345   -0.0003153065    0.0004459106
   0.0002249566    0.0002806158   -0.0003954824
  -0.0003467157    0.0000660918   -0.0000934679
  -0.0004236759   -0.0000990830    0.0001387564
  -0.0000438711   -0.0002099437   -0.0003930284
   0.0001870312   -0.0008672230   -0.0008231850
   0.0001833026    0.0008624495    0.0008102040
  -0.0000481498    0.0002162013    0.0003984277
  -0.0008104621    0.0002414060   -0.0012452813
   0.0016193021   -0.0000075807   -0.0000133596
  -0.0007995089   -0.0002670501    0.0012305686
  -0.0004752094    0.0000160380    0.0000007653
   0.0002146868    0.0003153366   -0.0004459717
   0.0002250088   -0.0002792956    0.0003963332
  -0.0003466634   -0.0000660616    0.0000934067
  -0.0004236237    0.0000978232   -0.0001397297
   0.0003237183    0.0000073136    0.0000050890
  -0.0000971897   -0.0002094758   -0.0001482043
  -0.0002417540    0.0000029511    0.0000020042
  -0.0001228814    0.0002096164    0.0001481386
  -0.0729860909   -0.0000005655   -0.0000004677
   0.0114960755   -0.0000003201   -0.0000003002
   0.0036399388    0.0000003660    0.0000001866
   0.0112498052    0.0000006034    0.0000003529
   0.0002249833    0.0063861503   -0.0002669419
   0.0011697386    0.0008855430    0.0000022830
   0.0011577770   -0.0008640397   -0.0000077672
   0.0003561985   -0.0063999157    0.0002664918
   0.0004126137    0.0018615314    0.0003703104
  -0.0003530087    0.0000158284    0.0000114029
   0.0004132191   -0.0018617215   -0.0003705902
  -0.0003524023   -0.0000155460   -0.0000113491
   0.0003559543    0.0063999419   -0.0002666048
   0.0002246746   -0.0063870374    0.0002661758
   0.0011706758   -0.0008855028   -0.0000023960
   0.0011574492    0.0008650061    0.0000083073
   0.0002249823    0.0018771099    0.0061098301
   0.0011697354    0.0002973999    0.0008340647
   0.0011577742   -0.0002952696   -0.0008121074
   0.0003561954   -0.0018819896   -0.0061228025
   0.0004489544    0.0007167431    0.0005067671
   0.0002378263    0.0000094835    0.0000066589
   0.0004654969   -0.0006940500   -0.0004908144
  -0.0011280154   -0.0000395750   -0.0000280310
  -0.0000576610    0.0003987437   -0.0003225591
  -0.0000572172   -0.0004176475    0.0003284471
   0.0001485711   -0.0001222644    0.0001180680
   0.0001540586    0.0001095939   -0.0001211368
  -0.0029656631    0.0000372534   -0.0000539169
   0.0007816095   -0.0011445924    0.0016179652
   0.0003536996   -0.0000030677    0.0000050644
   0.0009194331    0.0011398296   -0.0016107361
   0.0004125393    0.0009696676    0.0016316241
  -0.0003530829    0.0000160522    0.0000111150
   0.0004131449   -0.0009699444   -0.0016317253
  -0.0003524761   -0.0000158566   -0.0000108808
  -0.0000577323   -0.0001711941    0.0004834612
  -0.0000572885    0.0001704502   -0.0005032422
   0.0001484998    0.0000705640   -0.0001546257
   0.0001539873   -0.0000776745    0.0001437072
  -0.0012688458   -0.0000006003   -0.0000003775
   0.0002597823   -0.0000003644   -0.0000002107
   0.0007449399    0.0000003232    0.0000002755
   0.0002989373    0.0000005591    0.0000004423
  -0.0000569599   -0.0001714146    0.0005026529
   0.0001475657   -0.0000706050    0.0001546901
   0.0001543168    0.0000785567   -0.0001429895
  -0.0000574597    0.0001711530   -0.0004833977
   0.0003558774    0.0018819815    0.0061228078
   0.0002245988   -0.0018780371   -0.0061104649
   0.0011705987   -0.0002974028   -0.0008340445
   0.0011573722    0.0002961912    0.0008127833
  -0.0029657362   -0.0000384122    0.0000531203
   0.0007815345    0.0011439022   -0.0016184268
   0.0003536255    0.0000037536   -0.0000045541
   0.0009193591   -0.0011386728    0.0016115802
  -0.0000569630    0.0004167214   -0.0003290755
   0.0001475629    0.0001222624   -0.0001180438
   0.0001543140   -0.0001086721    0.0001218138
  -0.0000574623   -0.0003987464    0.0003225839
   0.0004648141    0.0006938125    0.0004906718
  -0.0011286995    0.0000398162    0.0000282262
   0.0004494821   -0.0007169778   -0.0005069075
   0.0002383573   -0.0000092495   -0.0000064681
