 1046

    1
0.0000000000e+00 0.0000000000e+00 0.0000000000e+00
0.0000000000e+00 0.0000000000e+00 0.0000000000e+00
     1      1      1
 1  1  1     0.0000000000e+00
 1  1  2     0.0000000000e+00
 1  1  3     0.0000000000e+00
 1  2  1     0.0000000000e+00
 1  2  2     0.0000000000e+00
 1  2  3     0.0000000000e+00
 1  3  1     0.0000000000e+00
 1  3  2     0.0000000000e+00
 1  3  3     0.0000000000e+00
 2  1  1     0.0000000000e+00
 2  1  2     0.0000000000e+00
 2  1  3     0.0000000000e+00
 2  2  1     0.0000000000e+00
 2  2  2     0.0000000000e+00
 2  2  3     0.0000000000e+00
 2  3  1     0.0000000000e+00
 2  3  2     0.0000000000e+00
 2  3  3     0.0000000000e+00
 3  1  1     0.0000000000e+00
 3  1  2     0.0000000000e+00
 3  1  3     0.0000000000e+00
 3  2  1     0.0000000000e+00
 3  2  2     0.0000000000e+00
 3  2  3     0.0000000000e+00
 3  3  1     0.0000000000e+00
 3  3  2     0.0000000000e+00
 3  3  3     0.0000000000e+00

    2
0.0000000000e+00 0.0000000000e+00 0.0000000000e+00
0.0000000000e+00 0.0000000000e+00 0.0000000000e+00
     1      1      2
 1  1  1     2.2038519119e-02
 1  1  2     3.4171710239e-02
 1  1  3     2.4163048035e-02
 1  2  1     3.9853384230e-02
 1  2  2     1.0626489047e-02
 1  2  3     2.0899941095e-02
 1  3  1     2.8180598242e-02
 1  3  2     2.0899941095e-02
 1  3  3    -4.1520010274e-03
 2  1  1     3.9853384230e-02
 2  1  2     1.0626489047e-02
 2  1  3     2.0899941095e-02
 2  2  1     7.8554102174e-04
 2  2  2    -2.0994232974e-02
 2  2  3     2.9874799807e-05
 2  3  1     2.0899941095e-02
 2  3  2     4.0474250077e-03
 2  3  3    -2.3971589108e-03
 3  1  1     2.8180598242e-02
 3  1  2     2.0899941095e-02
 3  1  3    -4.1520010274e-03
 3  2  1     2.0899941095e-02
 3  2  2     4.0474250077e-03
 3  2  3    -2.3971589108e-03
 3  3  1    -1.3992949053e-02
 3  3  2    -8.0788329022e-03
 3  3  3    -2.0587636831e-02

    3
0.0000000000e+00 0.0000000000e+00 0.0000000000e+00
3.9980874304e+00 -3.8090000000e-13 -2.6930000000e-13
     1      1      1
 1  1  1    -2.6706440029e-01
 1  1  2     0.0000000000e+00
 1  1  3     0.0000000000e+00
 1  2  1     0.0000000000e+00
 1  2  2     7.5868118320e-02
 1  2  3    -2.0026290261e-03
 1  3  1     0.0000000000e+00
 1  3  2    -2.0026290261e-03
 1  3  3     7.7284190883e-02
 2  1  1     0.0000000000e+00
 2  1  2     7.5868118320e-02
 2  1  3    -2.0026290261e-03
 2  2  1     1.4406944832e-02
 2  2  2     0.0000000000e+00
 2  2  3     0.0000000000e+00
 2  3  1     6.3233520647e-03
 2  3  2     0.0000000000e+00
 2  3  3     0.0000000000e+00
 3  1  1     0.0000000000e+00
 3  1  2    -2.0026290261e-03
 3  1  3     7.7284190883e-02
 3  2  1     6.3233520647e-03
 3  2  2     0.0000000000e+00
 3  2  3     0.0000000000e+00
 3  3  1     9.9356597075e-03
 3  3  2     0.0000000000e+00
 3  3  3     0.0000000000e+00

    4
0.0000000000e+00 0.0000000000e+00 0.0000000000e+00
-7.9961748609e+00 7.6180000000e-13 5.3860000000e-13
     1      1      2
 1  1  1    -2.2038519114e-02
 1  1  2     3.4171710238e-02
 1  1  3     2.4163048034e-02
 1  2  1     3.9853384229e-02
 1  2  2    -1.0626489047e-02
 1  2  3    -2.0899941095e-02
 1  3  1     2.8180598242e-02
 1  3  2    -2.0899941095e-02
 1  3  3     4.1520010271e-03
 2  1  1     3.9853384229e-02
 2  1  2    -1.0626489047e-02
 2  1  3    -2.0899941095e-02
 2  2  1    -7.8554102150e-04
 2  2  2    -2.0994232974e-02
 2  2  3     2.9874799683e-05
 2  3  1    -2.0899941095e-02
 2  3  2     4.0474250076e-03
 2  3  3    -2.3971589103e-03
 3  1  1     2.8180598242e-02
 3  1  2    -2.0899941095e-02
 3  1  3     4.1520010271e-03
 3  2  1    -2.0899941095e-02
 3  2  2     4.0474250076e-03
 3  2  3    -2.3971589103e-03
 3  3  1     1.3992949052e-02
 3  3  2    -8.0788329017e-03
 3  3  3    -2.0587636831e-02

    5
0.0000000000e+00 0.0000000000e+00 0.0000000000e+00
-3.9980874304e+00 3.8090000000e-13 2.6930000000e-13
     1      1      1
 1  1  1     2.6706440029e-01
 1  1  2     0.0000000000e+00
 1  1  3     0.0000000000e+00
 1  2  1     0.0000000000e+00
 1  2  2    -7.5868118320e-02
 1  2  3     2.0026290261e-03
 1  3  1     0.0000000000e+00
 1  3  2     2.0026290261e-03
 1  3  3    -7.7284190883e-02
 2  1  1     0.0000000000e+00
 2  1  2    -7.5868118320e-02
 2  1  3     2.0026290261e-03
 2  2  1    -1.4406944832e-02
 2  2  2     0.0000000000e+00
 2  2  3     0.0000000000e+00
 2  3  1    -6.3233520647e-03
 2  3  2     0.0000000000e+00
 2  3  3     0.0000000000e+00
 3  1  1     0.0000000000e+00
 3  1  2     2.0026290261e-03
 3  1  3    -7.7284190883e-02
 3  2  1    -6.3233520647e-03
 3  2  2     0.0000000000e+00
 3  2  3     0.0000000000e+00
 3  3  1    -9.9356597075e-03
 3  3  2     0.0000000000e+00
 3  3  3     0.0000000000e+00

    6
0.0000000000e+00 0.0000000000e+00 0.0000000000e+00
-3.9980874304e+00 3.8090000000e-13 2.6930000000e-13
     1      1      2
 1  1  1     0.0000000000e+00
 1  1  2     1.2424895020e-01
 1  1  3     8.7857275245e-02
 1  2  1     1.2336624274e-02
 1  2  2     0.0000000000e+00
 1  2  3     0.0000000000e+00
 1  3  1     8.7233106814e-03
 1  3  2     0.0000000000e+00
 1  3  3     0.0000000000e+00
 2  1  1     1.2336624274e-02
 2  1  2     0.0000000000e+00
 2  1  3     0.0000000000e+00
 2  2  1     0.0000000000e+00
 2  2  2    -2.1974558133e+00
 2  2  3    -1.5712825283e+00
 2  3  1     0.0000000000e+00
 2  3  2    -1.6504164929e+00
 2  3  3    -1.1608523818e+00
 3  1  1     8.7233106814e-03
 3  1  2     0.0000000000e+00
 3  1  3     0.0000000000e+00
 3  2  1     0.0000000000e+00
 3  2  2    -1.6504164929e+00
 3  2  3    -1.1608523818e+00
 3  3  1     0.0000000000e+00
 3  3  2    -1.0489400558e+00
 3  3  3    -7.2426600518e-01

    7
0.0000000000e+00 0.0000000000e+00 0.0000000000e+00
1.9990437153e+00 3.4624452813e+00 9.8600000000e-14
     1      1      1
 1  1  1     2.8920643011e-02
 1  1  2    -8.1315412519e-02
 1  1  3    -1.7343276099e-03
 1  2  1    -2.8088474934e-02
 1  2  2    -1.2451878401e-01
 1  2  3    -1.0013145130e-03
 1  3  1     1.8709279577e-03
 1  3  2     5.2431713042e-03
 1  3  3     3.8642095442e-02
 2  1  1    -2.8088474934e-02
 2  1  2    -1.2451878401e-01
 2  1  3    -1.0013145130e-03
 2  2  1    -1.5524937075e-01
 2  2  2    -1.3749236237e-01
 2  2  3     1.7343276078e-03
 2  3  1    -3.0828097850e-03
 2  3  2    -1.8709279589e-03
 2  3  3     6.6930072616e-02
 3  1  1     1.8709279577e-03
 3  1  2     5.2431713042e-03
 3  1  3     3.8642095442e-02
 3  2  1    -3.0828097850e-03
 3  2  2    -1.8709279589e-03
 3  2  3     6.6930072616e-02
 3  3  1     4.9678298539e-03
 3  3  2     8.6045337101e-03
 3  3  3     0.0000000000e+00

    8
0.0000000000e+00 0.0000000000e+00 0.0000000000e+00
-1.9990437152e+00 3.4624452813e+00 3.6790000000e-13
     1      1      1
 1  1  1    -2.8920643015e-02
 1  1  2    -8.1315412512e-02
 1  1  3    -1.7343276114e-03
 1  2  1    -2.8088474926e-02
 1  2  2     1.2451878400e-01
 1  2  3     1.0013145144e-03
 1  3  1     1.8709279567e-03
 1  3  2    -5.2431713041e-03
 1  3  3    -3.8642095440e-02
 2  1  1    -2.8088474926e-02
 2  1  2     1.2451878400e-01
 2  1  3     1.0013145144e-03
 2  2  1     1.5524937075e-01
 2  2  2    -1.3749236237e-01
 2  2  3     1.7343276078e-03
 2  3  1     3.0828097863e-03
 2  3  2    -1.8709279589e-03
 2  3  3     6.6930072616e-02
 3  1  1     1.8709279567e-03
 3  1  2    -5.2431713041e-03
 3  1  3    -3.8642095440e-02
 3  2  1     3.0828097863e-03
 3  2  2    -1.8709279589e-03
 3  2  3     6.6930072616e-02
 3  3  1    -4.9678298536e-03
 3  3  2     8.6045337101e-03
 3  3  3     0.0000000000e+00

    9
0.0000000000e+00 0.0000000000e+00 0.0000000000e+00
-3.9980874305e+00 -6.9248905627e+00 -1.9720000000e-13
     1      1      2
 1  1  1     7.9603399236e-13
 1  1  2     3.2811113277e-02
 1  1  3    -1.2036711817e-02
 1  2  1     2.1447765294e-02
 1  2  2    -4.6377101450e-13
 1  2  3     5.7205593800e-13
 1  3  1    -8.0191616093e-03
 1  3  2     7.4152404732e-13
 1  3  3    -1.3012769239e-13
 2  1  1     2.1447765294e-02
 2  1  2    -4.5496962860e-13
 2  1  3     5.6783284726e-13
 2  2  1    -4.8966312985e-13
 2  2  2    -5.9166067809e-02
 2  2  3     3.6229634652e-02
 2  3  1     6.2165439329e-13
 2  3  2     4.0247184860e-02
 2  3  3     4.7943178225e-03
 3  1  1    -8.0191616093e-03
 3  1  2     7.4011530698e-13
 3  1  3    -1.2977058545e-13
 3  2  1     6.2698326347e-13
 3  2  2     4.0247184860e-02
 3  2  3     4.7943178225e-03
 3  3  1     4.3046057734e-14
 3  3  2     1.6157665805e-02
 3  3  3    -2.0587636830e-02

   10
0.0000000000e+00 0.0000000000e+00 0.0000000000e+00
-1.9990437153e+00 -3.4624452813e+00 -9.8600000000e-14
     1      1      1
 1  1  1    -2.8920643011e-02
 1  1  2     8.1315412519e-02
 1  1  3     1.7343276099e-03
 1  2  1     2.8088474934e-02
 1  2  2     1.2451878401e-01
 1  2  3     1.0013145130e-03
 1  3  1    -1.8709279577e-03
 1  3  2    -5.2431713042e-03
 1  3  3    -3.8642095442e-02
 2  1  1     2.8088474934e-02
 2  1  2     1.2451878401e-01
 2  1  3     1.0013145130e-03
 2  2  1     1.5524937075e-01
 2  2  2     1.3749236237e-01
 2  2  3    -1.7343276078e-03
 2  3  1     3.0828097850e-03
 2  3  2     1.8709279589e-03
 2  3  3    -6.6930072616e-02
 3  1  1    -1.8709279577e-03
 3  1  2    -5.2431713042e-03
 3  1  3    -3.8642095442e-02
 3  2  1     3.0828097850e-03
 3  2  2     1.8709279589e-03
 3  2  3    -6.6930072616e-02
 3  3  1    -4.9678298539e-03
 3  3  2    -8.6045337101e-03
 3  3  3     0.0000000000e+00

   11
0.0000000000e+00 0.0000000000e+00 0.0000000000e+00
-1.9990437153e+00 -3.4624452813e+00 -9.8600000000e-14
     1      1      2
 1  1  1    -1.3950468167e+00
 1  1  2     8.1776727946e-01
 1  1  3    -1.1564975774e+00
 1  2  1     8.7372344243e-01
 1  2  2    -4.9732191137e-01
 1  2  3     7.1842860920e-01
 1  3  1    -1.2356315420e+00
 1  3  2     7.1842860920e-01
 1  3  3    -1.0053276526e+00
 2  1  1     8.7372344243e-01
 2  1  2    -4.9732191137e-01
 2  1  3     7.1842860920e-01
 2  2  1    -4.0040299412e-01
 2  2  2     2.1883615218e-01
 2  2  3    -3.2692767570e-01
 2  3  1     7.1842860919e-01
 2  3  2    -4.0606164026e-01
 2  3  3     5.8042619092e-01
 3  1  1    -1.2356315420e+00
 3  1  2     7.1842860920e-01
 3  1  3    -1.0053276526e+00
 3  2  1     7.1842860919e-01
 3  2  2    -4.0606164026e-01
 3  2  3     5.8042619092e-01
 3  3  1    -9.0840873539e-01
 3  3  2     5.2447002795e-01
 3  3  3    -7.2426600518e-01

   12
0.0000000000e+00 0.0000000000e+00 0.0000000000e+00
1.9990437152e+00 -3.4624452813e+00 -3.6790000000e-13
     1      1      1
 1  1  1     2.8920643015e-02
 1  1  2     8.1315412512e-02
 1  1  3     1.7343276114e-03
 1  2  1     2.8088474926e-02
 1  2  2    -1.2451878400e-01
 1  2  3    -1.0013145144e-03
 1  3  1    -1.8709279567e-03
 1  3  2     5.2431713041e-03
 1  3  3     3.8642095440e-02
 2  1  1     2.8088474926e-02
 2  1  2    -1.2451878400e-01
 2  1  3    -1.0013145144e-03
 2  2  1    -1.5524937075e-01
 2  2  2     1.3749236237e-01
 2  2  3    -1.7343276078e-03
 2  3  1    -3.0828097863e-03
 2  3  2     1.8709279589e-03
 2  3  3    -6.6930072616e-02
 3  1  1    -1.8709279567e-03
 3  1  2     5.2431713041e-03
 3  1  3     3.8642095440e-02
 3  2  1    -3.0828097863e-03
 3  2  2     1.8709279589e-03
 3  2  3    -6.6930072616e-02
 3  3  1     4.9678298536e-03
 3  3  2    -8.6045337101e-03
 3  3  3     0.0000000000e+00

   13
0.0000000000e+00 0.0000000000e+00 0.0000000000e+00
-5.9971311457e+00 -3.4624452813e+00 1.7070000000e-13
     1      1      2
 1  1  1     1.3950468168e+00
 1  1  2     8.1776727948e-01
 1  1  3    -1.1564975774e+00
 1  2  1     8.7372344244e-01
 1  2  2     4.9732191136e-01
 1  2  3    -7.1842860918e-01
 1  3  1    -1.2356315420e+00
 1  3  2    -7.1842860918e-01
 1  3  3     1.0053276526e+00
 2  1  1     8.7372344244e-01
 2  1  2     4.9732191136e-01
 2  1  3    -7.1842860918e-01
 2  2  1     4.0040299410e-01
 2  2  2     2.1883615216e-01
 2  2  3    -3.2692767567e-01
 2  3  1    -7.1842860918e-01
 2  3  2    -4.0606164023e-01
 2  3  3     5.8042619088e-01
 3  1  1    -1.2356315420e+00
 3  1  2    -7.1842860918e-01
 3  1  3     1.0053276526e+00
 3  2  1    -7.1842860918e-01
 3  2  2    -4.0606164023e-01
 3  2  3     5.8042619088e-01
 3  3  1     9.0840873537e-01
 3  3  2     5.2447002791e-01
 3  3  3    -7.2426600512e-01

   14
0.0000000000e+00 0.0000000000e+00 0.0000000000e+00
1.9990437153e+00 1.1541484271e+00 3.2644247172e+00
     1      1      1
 1  1  1     2.8920643013e-02
 1  1  2    -2.8740277256e-02
 1  1  3    -7.6086796938e-02
 1  2  1    -7.5988971819e-03
 1  2  2     2.1846195818e-02
 1  2  3    -4.6504663574e-02
 1  3  1    -2.7105710782e-02
 1  3  2    -5.2749149390e-02
 1  3  3    -1.0772288438e-01
 2  1  1    -7.5988971819e-03
 2  1  2     2.1846195818e-02
 2  1  3    -4.6504663574e-02
 2  2  1    -1.4771748615e-02
 2  2  2     3.6909145247e-02
 2  2  3    -2.2387836868e-02
 2  3  1    -5.2749149390e-02
 2  3  2     3.3803760424e-02
 2  3  3    -6.2193836292e-02
 3  1  1    -2.7105710782e-02
 3  1  2    -5.2749149390e-02
 3  1  3    -1.0772288438e-01
 3  2  1    -5.2749149390e-02
 3  2  2     3.3803760424e-02
 3  2  3    -6.2193836292e-02
 3  3  1    -1.3550979228e-01
 3  3  2    -7.8236615047e-02
 3  3  3    -9.9706882548e-02

   15
0.0000000000e+00 0.0000000000e+00 0.0000000000e+00
-1.9990437152e+00 1.1541484271e+00 3.2644247172e+00
     1      1      1
 1  1  1    -2.8920643017e-02
 1  1  2    -2.8740277255e-02
 1  1  3    -7.6086796931e-02
 1  2  1    -7.5988971801e-03
 1  2  2    -2.1846195816e-02
 1  2  3     4.6504663572e-02
 1  3  1    -2.7105710774e-02
 1  3  2     5.2749149390e-02
 1  3  3     1.0772288437e-01
 2  1  1    -7.5988971801e-03
 2  1  2    -2.1846195816e-02
 2  1  3     4.6504663572e-02
 2  2  1     1.4771748616e-02
 2  2  2     3.6909145247e-02
 2  2  3    -2.2387836868e-02
 2  3  1     5.2749149390e-02
 2  3  2     3.3803760424e-02
 2  3  3    -6.2193836292e-02
 3  1  1    -2.7105710774e-02
 3  1  2     5.2749149390e-02
 3  1  3     1.0772288437e-01
 3  2  1     5.2749149390e-02
 3  2  2     3.3803760424e-02
 3  2  3    -6.2193836292e-02
 3  3  1     1.3550979227e-01
 3  3  2    -7.8236615047e-02
 3  3  3    -9.9706882549e-02

   16
0.0000000000e+00 0.0000000000e+00 0.0000000000e+00
9.8681063321e-11 4.6165937084e+00 3.2644247172e+00
     1      1      1
 1  1  1     0.0000000000e+00
 1  1  2     1.9522356314e-03
 1  1  3     1.3804390534e-03
 1  2  1     1.5564054025e-02
 1  2  2     0.0000000000e+00
 1  2  3     0.0000000000e+00
 1  3  1     1.1005448144e-02
 1  3  2     0.0000000000e+00
 1  3  3     0.0000000000e+00
 2  1  1     1.5564054025e-02
 2  1  2     0.0000000000e+00
 2  1  3     0.0000000000e+00
 2  2  1     0.0000000000e+00
 2  2  2     1.3031866933e-02
 2  2  3    -1.2795974808e-02
 2  3  1     0.0000000000e+00
 2  3  2    -3.1709657175e-03
 2  3  3     5.5398156506e-03
 3  1  1     1.1005448144e-02
 3  1  2     0.0000000000e+00
 3  1  3     0.0000000000e+00
 3  2  1     0.0000000000e+00
 3  2  2    -3.1709657175e-03
 3  2  3     5.5398156506e-03
 3  3  1     0.0000000000e+00
 3  3  2    -8.0720027430e-03
 3  3  3     1.6303128410e-02

   17
0.0000000000e+00 0.0000000000e+00 0.0000000000e+00
0.0000000000e+00 -2.3082968543e+00 3.2644247172e+00
     1      1      1
 1  1  1     0.0000000000e+00
 1  1  2    -3.1548581363e-03
 1  1  3     4.4616431637e-03
 1  2  1    -4.5437618287e-02
 1  2  2    -7.6324023010e-13
 1  2  3    -2.1084879266e-13
 1  3  1     6.4258496022e-02
 1  3  2     7.5052968916e-13
 1  3  3     7.6322967366e-13
 2  1  1    -4.5437618287e-02
 2  1  2    -7.6324771022e-13
 2  1  3    -2.1085465877e-13
 2  2  1    -1.2164381145e-12
 2  2  2    -1.3182877839e-02
 2  2  3    -1.0293627697e-01
 2  3  1     4.3006726144e-13
 2  3  2    -5.7560446385e-02
 2  3  3     1.2438767259e-01
 3  1  1     6.4258496022e-02
 3  1  2     7.5054270739e-13
 3  1  3     7.6323731022e-13
 3  2  1     4.3008673379e-13
 3  2  2    -5.7560446385e-02
 3  2  3     1.2438767259e-01
 3  3  1     1.2164424602e-12
 3  3  2     1.5647323010e-01
 3  3  3    -9.9706882544e-02

   18
0.0000000000e+00 0.0000000000e+00 0.0000000000e+00
3.9980874304e+00 -2.3082968543e+00 3.2644247172e+00
     1      1      1
 1  1  1     1.5626550365e-02
 1  1  2     6.5420609653e-03
 1  1  3    -9.2518713421e-03
 1  2  1    -2.6384823181e-04
 1  2  2     9.1382436282e-03
 1  2  3     6.1385672692e-03
 1  3  1     3.7313774804e-04
 1  3  2     6.1385672693e-03
 1  3  3     4.7976210858e-03
 2  1  1    -2.6384823181e-04
 2  1  2     9.1382436282e-03
 2  1  3     6.1385672692e-03
 2  2  1    -2.6499368924e-03
 2  2  2    -1.4034112248e-02
 2  2  3    -2.1636644120e-03
 2  3  1     6.1385672695e-03
 2  3  2     7.4613446785e-03
 2  3  3    -2.7699078257e-03
 3  1  1     3.7313774804e-04
 3  1  2     6.1385672693e-03
 3  1  3     4.7976210858e-03
 3  2  1     6.1385672695e-03
 3  2  2     7.4613446785e-03
 3  2  3    -2.7699078257e-03
 3  3  1    -6.9905594345e-03
 3  3  2     4.0360013712e-03
 3  3  3     1.6303128410e-02

   19
0.0000000000e+00 0.0000000000e+00 0.0000000000e+00
-3.9980874304e+00 -2.3082968543e+00 3.2644247172e+00
     1      1      1
 1  1  1    -1.5626550365e-02
 1  1  2     6.5420609647e-03
 1  1  3    -9.2518713429e-03
 1  2  1    -2.6384823205e-04
 1  2  2    -9.1382436288e-03
 1  2  3    -6.1385672693e-03
 1  3  1     3.7313774747e-04
 1  3  2    -6.1385672690e-03
 1  3  3    -4.7976210859e-03
 2  1  1    -2.6384823205e-04
 2  1  2    -9.1382436288e-03
 2  1  3    -6.1385672693e-03
 2  2  1     2.6499368918e-03
 2  2  2    -1.4034112248e-02
 2  2  3    -2.1636644119e-03
 2  3  1    -6.1385672692e-03
 2  3  2     7.4613446783e-03
 2  3  3    -2.7699078256e-03
 3  1  1     3.7313774747e-04
 3  1  2    -6.1385672690e-03
 3  1  3    -4.7976210859e-03
 3  2  1    -6.1385672692e-03
 3  2  2     7.4613446783e-03
 3  2  3    -2.7699078256e-03
 3  3  1     6.9905594347e-03
 3  3  2     4.0360013711e-03
 3  3  3     1.6303128410e-02

   20
0.0000000000e+00 0.0000000000e+00 0.0000000000e+00
-3.9980874304e+00 -2.3082968543e+00 3.2644247172e+00
     1      1      2
 1  1  1     1.7935196627e-14
 1  1  2     4.1128297398e-04
 1  1  3    -3.4946851534e-02
 1  2  1     4.1128297382e-04
 1  2  2     3.4427975656e-15
 1  2  3    -6.9025159128e-13
 1  3  1    -2.2894200911e-02
 1  3  2    -4.0762412577e-13
 1  3  3     6.4100154663e-13
 2  1  1     4.1128297381e-04
 2  1  2     1.5000133717e-15
 2  1  3    -6.9486437524e-13
 2  2  1    -6.5142996055e-14
 2  2  2    -4.1128297219e-04
 2  2  3    -3.4946851535e-02
 2  3  1    -4.1473710265e-13
 2  3  2    -2.2894200911e-02
 2  3  3    -8.9472778193e-13
 3  1  1    -2.2894200911e-02
 3  1  2    -4.0976508286e-13
 3  1  3     6.4362588352e-13
 3  2  1    -4.0975014884e-13
 3  2  2    -2.2894200911e-02
 3  2  3    -9.0320385940e-13
 3  3  1     5.1134529501e-13
 3  3  2    -9.8348912047e-13
 3  3  3     8.0709561080e-02

   21
0.0000000000e+00 0.0000000000e+00 0.0000000000e+00
-3.9980874305e+00 -2.3082968542e+00 -6.5288494344e+00
     1      1      2
 1  1  1    -1.7935196627e-14
 1  1  2    -4.1128297398e-04
 1  1  3     3.4946851534e-02
 1  2  1    -4.1128297382e-04
 1  2  2    -3.4427975656e-15
 1  2  3     6.9025159128e-13
 1  3  1     2.2894200911e-02
 1  3  2     4.0762412577e-13
 1  3  3    -6.4100154663e-13
 2  1  1    -4.1128297381e-04
 2  1  2    -1.5000133717e-15
 2  1  3     6.9486437524e-13
 2  2  1     6.5142996055e-14
 2  2  2     4.1128297219e-04
 2  2  3     3.4946851535e-02
 2  3  1     4.1473710265e-13
 2  3  2     2.2894200911e-02
 2  3  3     8.9472778193e-13
 3  1  1     2.2894200911e-02
 3  1  2     4.0976508286e-13
 3  1  3    -6.4362588352e-13
 3  2  1     4.0975014884e-13
 3  2  2     2.2894200911e-02
 3  2  3     9.0320385940e-13
 3  3  1    -5.1134529501e-13
 3  3  2     9.8348912047e-13
 3  3  3    -8.0709561080e-02

   22
0.0000000000e+00 0.0000000000e+00 0.0000000000e+00
-1.9990437153e+00 -1.1541484271e+00 -3.2644247172e+00
     1      1      1
 1  1  1    -2.8920643013e-02
 1  1  2     2.8740277256e-02
 1  1  3     7.6086796938e-02
 1  2  1     7.5988971819e-03
 1  2  2    -2.1846195818e-02
 1  2  3     4.6504663574e-02
 1  3  1     2.7105710782e-02
 1  3  2     5.2749149390e-02
 1  3  3     1.0772288438e-01
 2  1  1     7.5988971819e-03
 2  1  2    -2.1846195818e-02
 2  1  3     4.6504663574e-02
 2  2  1     1.4771748615e-02
 2  2  2    -3.6909145247e-02
 2  2  3     2.2387836868e-02
 2  3  1     5.2749149390e-02
 2  3  2    -3.3803760424e-02
 2  3  3     6.2193836292e-02
 3  1  1     2.7105710782e-02
 3  1  2     5.2749149390e-02
 3  1  3     1.0772288438e-01
 3  2  1     5.2749149390e-02
 3  2  2    -3.3803760424e-02
 3  2  3     6.2193836292e-02
 3  3  1     1.3550979228e-01
 3  3  2     7.8236615047e-02
 3  3  3     9.9706882548e-02

   23
0.0000000000e+00 0.0000000000e+00 0.0000000000e+00
-1.9990437153e+00 -1.1541484271e+00 -3.2644247172e+00
     1      1      2
 1  1  1    -1.3950468168e+00
 1  1  2    -8.1776727948e-01
 1  1  3     1.1564975774e+00
 1  2  1    -8.7372344244e-01
 1  2  2    -4.9732191136e-01
 1  2  3     7.1842860918e-01
 1  3  1     1.2356315420e+00
 1  3  2     7.1842860918e-01
 1  3  3    -1.0053276526e+00
 2  1  1    -8.7372344244e-01
 2  1  2    -4.9732191136e-01
 2  1  3     7.1842860918e-01
 2  2  1    -4.0040299410e-01
 2  2  2    -2.1883615216e-01
 2  2  3     3.2692767567e-01
 2  3  1     7.1842860918e-01
 2  3  2     4.0606164023e-01
 2  3  3    -5.8042619088e-01
 3  1  1     1.2356315420e+00
 3  1  2     7.1842860918e-01
 3  1  3    -1.0053276526e+00
 3  2  1     7.1842860918e-01
 3  2  2     4.0606164023e-01
 3  2  3    -5.8042619088e-01
 3  3  1    -9.0840873537e-01
 3  3  2    -5.2447002791e-01
 3  3  3     7.2426600512e-01

   24
0.0000000000e+00 0.0000000000e+00 0.0000000000e+00
1.9990437152e+00 -1.1541484271e+00 -3.2644247172e+00
     1      1      1
 1  1  1     2.8920643017e-02
 1  1  2     2.8740277255e-02
 1  1  3     7.6086796931e-02
 1  2  1     7.5988971801e-03
 1  2  2     2.1846195816e-02
 1  2  3    -4.6504663572e-02
 1  3  1     2.7105710774e-02
 1  3  2    -5.2749149390e-02
 1  3  3    -1.0772288437e-01
 2  1  1     7.5988971801e-03
 2  1  2     2.1846195816e-02
 2  1  3    -4.6504663572e-02
 2  2  1    -1.4771748616e-02
 2  2  2    -3.6909145247e-02
 2  2  3     2.2387836868e-02
 2  3  1    -5.2749149390e-02
 2  3  2    -3.3803760424e-02
 2  3  3     6.2193836292e-02
 3  1  1     2.7105710774e-02
 3  1  2    -5.2749149390e-02
 3  1  3    -1.0772288437e-01
 3  2  1    -5.2749149390e-02
 3  2  2    -3.3803760424e-02
 3  2  3     6.2193836292e-02
 3  3  1    -1.3550979227e-01
 3  3  2     7.8236615047e-02
 3  3  3     9.9706882549e-02

   25
0.0000000000e+00 0.0000000000e+00 0.0000000000e+00
-5.9971311457e+00 -1.1541484271e+00 -3.2644247172e+00
     1      1      2
 1  1  1     1.3950468167e+00
 1  1  2    -8.1776727946e-01
 1  1  3     1.1564975774e+00
 1  2  1    -8.7372344243e-01
 1  2  2     4.9732191137e-01
 1  2  3    -7.1842860920e-01
 1  3  1     1.2356315420e+00
 1  3  2    -7.1842860920e-01
 1  3  3     1.0053276526e+00
 2  1  1    -8.7372344243e-01
 2  1  2     4.9732191137e-01
 2  1  3    -7.1842860920e-01
 2  2  1     4.0040299412e-01
 2  2  2    -2.1883615218e-01
 2  2  3     3.2692767570e-01
 2  3  1    -7.1842860919e-01
 2  3  2     4.0606164026e-01
 2  3  3    -5.8042619092e-01
 3  1  1     1.2356315420e+00
 3  1  2    -7.1842860920e-01
 3  1  3     1.0053276526e+00
 3  2  1    -7.1842860919e-01
 3  2  2     4.0606164026e-01
 3  2  3    -5.8042619092e-01
 3  3  1     9.0840873539e-01
 3  3  2    -5.2447002795e-01
 3  3  3     7.2426600518e-01

   26
0.0000000000e+00 0.0000000000e+00 0.0000000000e+00
0.0000000000e+00 2.3082968543e+00 -3.2644247172e+00
     1      1      1
 1  1  1     0.0000000000e+00
 1  1  2     3.1548581363e-03
 1  1  3    -4.4616431637e-03
 1  2  1     4.5437618287e-02
 1  2  2     7.6324023010e-13
 1  2  3     2.1084879266e-13
 1  3  1    -6.4258496022e-02
 1  3  2    -7.5052968916e-13
 1  3  3    -7.6322967366e-13
 2  1  1     4.5437618287e-02
 2  1  2     7.6324771022e-13
 2  1  3     2.1085465877e-13
 2  2  1     1.2164381145e-12
 2  2  2     1.3182877839e-02
 2  2  3     1.0293627697e-01
 2  3  1    -4.3006726144e-13
 2  3  2     5.7560446385e-02
 2  3  3    -1.2438767259e-01
 3  1  1    -6.4258496022e-02
 3  1  2    -7.5054270739e-13
 3  1  3    -7.6323731022e-13
 3  2  1    -4.3008673379e-13
 3  2  2     5.7560446385e-02
 3  2  3    -1.2438767259e-01
 3  3  1    -1.2164424602e-12
 3  3  2    -1.5647323010e-01
 3  3  3     9.9706882544e-02

   27
0.0000000000e+00 0.0000000000e+00 0.0000000000e+00
3.9980874304e+00 2.3082968543e+00 -3.2644247172e+00
     1      1      1
 1  1  1     1.5626550365e-02
 1  1  2    -6.5420609647e-03
 1  1  3     9.2518713429e-03
 1  2  1     2.6384823205e-04
 1  2  2     9.1382436288e-03
 1  2  3     6.1385672693e-03
 1  3  1    -3.7313774747e-04
 1  3  2     6.1385672690e-03
 1  3  3     4.7976210859e-03
 2  1  1     2.6384823205e-04
 2  1  2     9.1382436288e-03
 2  1  3     6.1385672693e-03
 2  2  1    -2.6499368918e-03
 2  2  2     1.4034112248e-02
 2  2  3     2.1636644119e-03
 2  3  1     6.1385672692e-03
 2  3  2    -7.4613446783e-03
 2  3  3     2.7699078256e-03
 3  1  1    -3.7313774747e-04
 3  1  2     6.1385672690e-03
 3  1  3     4.7976210859e-03
 3  2  1     6.1385672692e-03
 3  2  2    -7.4613446783e-03
 3  2  3     2.7699078256e-03
 3  3  1    -6.9905594347e-03
 3  3  2    -4.0360013711e-03
 3  3  3    -1.6303128410e-02

   28
0.0000000000e+00 0.0000000000e+00 0.0000000000e+00
-3.9980874304e+00 2.3082968543e+00 -3.2644247172e+00
     1      1      1
 1  1  1    -1.5626550365e-02
 1  1  2    -6.5420609653e-03
 1  1  3     9.2518713421e-03
 1  2  1     2.6384823181e-04
 1  2  2    -9.1382436282e-03
 1  2  3    -6.1385672692e-03
 1  3  1    -3.7313774804e-04
 1  3  2    -6.1385672693e-03
 1  3  3    -4.7976210858e-03
 2  1  1     2.6384823181e-04
 2  1  2    -9.1382436282e-03
 2  1  3    -6.1385672692e-03
 2  2  1     2.6499368924e-03
 2  2  2     1.4034112248e-02
 2  2  3     2.1636644120e-03
 2  3  1    -6.1385672695e-03
 2  3  2    -7.4613446785e-03
 2  3  3     2.7699078257e-03
 3  1  1    -3.7313774804e-04
 3  1  2    -6.1385672693e-03
 3  1  3    -4.7976210858e-03
 3  2  1    -6.1385672695e-03
 3  2  2    -7.4613446785e-03
 3  2  3     2.7699078257e-03
 3  3  1     6.9905594345e-03
 3  3  2    -4.0360013712e-03
 3  3  3    -1.6303128410e-02

   29
0.0000000000e+00 0.0000000000e+00 0.0000000000e+00
-3.9980874304e+00 2.3082968543e+00 -3.2644247172e+00
     1      1      2
 1  1  1    -7.9603399236e-13
 1  1  2    -3.2811113277e-02
 1  1  3     1.2036711817e-02
 1  2  1    -2.1447765294e-02
 1  2  2     4.6377101450e-13
 1  2  3    -5.7205593800e-13
 1  3  1     8.0191616093e-03
 1  3  2    -7.4152404732e-13
 1  3  3     1.3012769239e-13
 2  1  1    -2.1447765294e-02
 2  1  2     4.5496962860e-13
 2  1  3    -5.6783284726e-13
 2  2  1     4.8966312985e-13
 2  2  2     5.9166067809e-02
 2  2  3    -3.6229634652e-02
 2  3  1    -6.2165439329e-13
 2  3  2    -4.0247184860e-02
 2  3  3    -4.7943178225e-03
 3  1  1     8.0191616093e-03
 3  1  2    -7.4011530698e-13
 3  1  3     1.2977058545e-13
 3  2  1    -6.2698326347e-13
 3  2  2    -4.0247184860e-02
 3  2  3    -4.7943178225e-03
 3  3  1    -4.3046057734e-14
 3  3  2    -1.6157665805e-02
 3  3  3     2.0587636830e-02

   30
0.0000000000e+00 0.0000000000e+00 0.0000000000e+00
-3.9980874305e+00 -4.6165937084e+00 -3.2644247172e+00
     1      1      2
 1  1  1     0.0000000000e+00
 1  1  2    -1.2424895020e-01
 1  1  3    -8.7857275245e-02
 1  2  1    -1.2336624274e-02
 1  2  2     0.0000000000e+00
 1  2  3     0.0000000000e+00
 1  3  1    -8.7233106814e-03
 1  3  2     0.0000000000e+00
 1  3  3     0.0000000000e+00
 2  1  1    -1.2336624274e-02
 2  1  2     0.0000000000e+00
 2  1  3     0.0000000000e+00
 2  2  1     0.0000000000e+00
 2  2  2     2.1974558133e+00
 2  2  3     1.5712825283e+00
 2  3  1     0.0000000000e+00
 2  3  2     1.6504164929e+00
 2  3  3     1.1608523818e+00
 3  1  1    -8.7233106814e-03
 3  1  2     0.0000000000e+00
 3  1  3     0.0000000000e+00
 3  2  1     0.0000000000e+00
 3  2  2     1.6504164929e+00
 3  2  3     1.1608523818e+00
 3  3  1     0.0000000000e+00
 3  3  2     1.0489400558e+00
 3  3  3     7.2426600518e-01

   31
0.0000000000e+00 0.0000000000e+00 0.0000000000e+00
-9.8681063321e-11 -4.6165937084e+00 -3.2644247172e+00
     1      1      1
 1  1  1     0.0000000000e+00
 1  1  2    -1.9522356314e-03
 1  1  3    -1.3804390534e-03
 1  2  1    -1.5564054025e-02
 1  2  2     0.0000000000e+00
 1  2  3     0.0000000000e+00
 1  3  1    -1.1005448144e-02
 1  3  2     0.0000000000e+00
 1  3  3     0.0000000000e+00
 2  1  1    -1.5564054025e-02
 2  1  2     0.0000000000e+00
 2  1  3     0.0000000000e+00
 2  2  1     0.0000000000e+00
 2  2  2    -1.3031866933e-02
 2  2  3     1.2795974808e-02
 2  3  1     0.0000000000e+00
 2  3  2     3.1709657175e-03
 2  3  3    -5.5398156506e-03
 3  1  1    -1.1005448144e-02
 3  1  2     0.0000000000e+00
 3  1  3     0.0000000000e+00
 3  2  1     0.0000000000e+00
 3  2  2     3.1709657175e-03
 3  2  3    -5.5398156506e-03
 3  3  1     0.0000000000e+00
 3  3  2     8.0720027430e-03
 3  3  3    -1.6303128410e-02

   32
0.0000000000e+00 0.0000000000e+00 0.0000000000e+00
-9.8681063321e-11 -4.6165937084e+00 -3.2644247172e+00
     1      1      2
 1  1  1     2.2038519114e-02
 1  1  2    -3.4171710238e-02
 1  1  3    -2.4163048034e-02
 1  2  1    -3.9853384229e-02
 1  2  2     1.0626489047e-02
 1  2  3     2.0899941095e-02
 1  3  1    -2.8180598242e-02
 1  3  2     2.0899941095e-02
 1  3  3    -4.1520010271e-03
 2  1  1    -3.9853384229e-02
 2  1  2     1.0626489047e-02
 2  1  3     2.0899941095e-02
 2  2  1     7.8554102150e-04
 2  2  2     2.0994232974e-02
 2  2  3    -2.9874799683e-05
 2  3  1     2.0899941095e-02
 2  3  2    -4.0474250076e-03
 2  3  3     2.3971589103e-03
 3  1  1    -2.8180598242e-02
 3  1  2     2.0899941095e-02
 3  1  3    -4.1520010271e-03
 3  2  1     2.0899941095e-02