 1046

    1
0.0000000000e+00 0.0000000000e+00 0.0000000000e+00
0.0000000000e+00 0.0000000000e+00 0.0000000000e+00
     1      1      1
 1  1  1     0.0000000000e+00
 1  1  2     0.0000000000e+00
 1  1  3     0.0000000000e+00
 1  2  1     0.0000000000e+00
 1  2  2     0.0000000000e+00
 1  2  3     0.0000000000e+00
 1  3  1     0.0000000000e+00
 1  3  2     0.0000000000e+00
 1  3  3     0.0000000000e+00
 2  1  1     0.0000000000e+00
 2  1  2     0.0000000000e+00
 2  1  3     0.0000000000e+00
 2  2  1     0.0000000000e+00
 2  2  2     0.0000000000e+00
 2  2  3     0.0000000000e+00
 2  3  1     0.0000000000e+00
 2  3  2     0.0000000000e+00
 2  3  3     0.0000000000e+00
 3  1  1     0.0000000000e+00
 3  1  2     0.0000000000e+00
 3  1  3     0.0000000000e+00
 3  2  1     0.0000000000e+00
 3  2  2     0.0000000000e+00
 3  2  3     0.0000000000e+00
 3  3  1     0.0000000000e+00
 3  3  2     0.0000000000e+00
 3  3  3     0.0000000000e+00

    2
0.0000000000e+00 0.0000000000e+00 0.0000000000e+00
0.0000000000e+00 0.0000000000e+00 0.0000000000e+00
     1      1      2
 1  1  1     6.5711137038e-02
 1  1  2     6.2679947119e-02
 1  1  3     4.4321415652e-02
 1  2  1     6.0291988346e-02
 1  2  2     2.0525023704e-02
 1  2  3     3.9781855523e-02
 1  3  1     4.2632873811e-02
 1  3  2     3.9781855523e-02
 1  3  3    -7.6049961041e-03
 2  1  1     6.0291988346e-02
 2  1  2     2.0525023704e-02
 2  1  3     3.9781855523e-02
 2  2  1     2.4661089625e-02
 2  2  2    -1.0503517729e-02
 2  2  3    -1.6147143383e-03
 2  3  1     3.9781855523e-02
 2  3  2    -3.3032561801e-03
 2  3  3    -4.3907465479e-03
 3  1  1     4.2632873811e-02
 3  1  2     3.9781855523e-02
 3  1  3    -7.6049961041e-03
 3  2  1     3.9781855523e-02
 3  2  2    -3.3032561801e-03
 3  2  3    -4.3907465479e-03
 3  3  1    -3.4689301824e-03
 3  3  2    -2.0027877746e-03
 3  3  3    -7.2285790906e-03

    3
0.0000000000e+00 0.0000000000e+00 0.0000000000e+00
3.9980874304e+00 -3.8090000000e-13 -2.6930000000e-13
     1      1      1
 1  1  1    -9.4297752745e-02
 1  1  2     0.0000000000e+00
 1  1  3     0.0000000000e+00
 1  2  1     0.0000000000e+00
 1  2  2     3.6710342992e-02
 1  2  3    -2.2267625210e-02
 1  3  1     0.0000000000e+00
 1  3  2    -2.2267625210e-02
 1  3  3     5.2455931777e-02
 2  1  1     0.0000000000e+00
 2  1  2     3.6710342992e-02
 2  1  3    -2.2267625210e-02
 2  2  1    -2.0089849421e-02
 2  2  2     0.0000000000e+00
 2  2  3     0.0000000000e+00
 2  3  1     2.7908700213e-02
 2  3  2     0.0000000000e+00
 2  3  3     0.0000000000e+00
 3  1  1     0.0000000000e+00
 3  1  2    -2.2267625210e-02
 3  1  3     5.2455931777e-02
 3  2  1     2.7908700213e-02
 3  2  2     0.0000000000e+00
 3  2  3     0.0000000000e+00
 3  3  1    -3.9824280595e-02
 3  3  2     0.0000000000e+00
 3  3  3     0.0000000000e+00

    4
0.0000000000e+00 0.0000000000e+00 0.0000000000e+00
-7.9961748609e+00 7.6180000000e-13 5.3860000000e-13
     1      1      2
 1  1  1    -6.5711137030e-02
 1  1  2     6.2679947117e-02
 1  1  3     4.4321415650e-02
 1  2  1     6.0291988343e-02
 1  2  2    -2.0525023704e-02
 1  2  3    -3.9781855523e-02
 1  3  1     4.2632873809e-02
 1  3  2    -3.9781855523e-02
 1  3  3     7.6049961039e-03
 2  1  1     6.0291988343e-02
 2  1  2    -2.0525023704e-02
 2  1  3    -3.9781855523e-02
 2  2  1    -2.4661089626e-02
 2  2  2    -1.0503517729e-02
 2  2  3    -1.6147143382e-03
 2  3  1    -3.9781855523e-02
 2  3  2    -3.3032561801e-03
 2  3  3    -4.3907465477e-03
 3  1  1     4.2632873809e-02
 3  1  2    -3.9781855523e-02
 3  1  3     7.6049961039e-03
 3  2  1    -3.9781855523e-02
 3  2  2    -3.3032561801e-03
 3  2  3    -4.3907465477e-03
 3  3  1     3.4689301823e-03
 3  3  2    -2.0027877744e-03
 3  3  3    -7.2285790906e-03

    5
0.0000000000e+00 0.0000000000e+00 0.0000000000e+00
-3.9980874304e+00 3.8090000000e-13 2.6930000000e-13
     1      1      1
 1  1  1     9.4297752745e-02
 1  1  2     0.0000000000e+00
 1  1  3     0.0000000000e+00
 1  2  1     0.0000000000e+00
 1  2  2    -3.6710342992e-02
 1  2  3     2.2267625210e-02
 1  3  1     0.0000000000e+00
 1  3  2     2.2267625210e-02
 1  3  3    -5.2455931777e-02
 2  1  1     0.0000000000e+00
 2  1  2    -3.6710342992e-02
 2  1  3     2.2267625210e-02
 2  2  1     2.0089849421e-02
 2  2  2     0.0000000000e+00
 2  2  3     0.0000000000e+00
 2  3  1    -2.7908700213e-02
 2  3  2     0.0000000000e+00
 2  3  3     0.0000000000e+00
 3  1  1     0.0000000000e+00
 3  1  2     2.2267625210e-02
 3  1  3    -5.2455931777e-02
 3  2  1    -2.7908700213e-02
 3  2  2     0.0000000000e+00
 3  2  3     0.0000000000e+00
 3  3  1     3.9824280595e-02
 3  3  2     0.0000000000e+00
 3  3  3     0.0000000000e+00

    6
0.0000000000e+00 0.0000000000e+00 0.0000000000e+00
-3.9980874304e+00 3.8090000000e-13 2.6930000000e-13
     1      1      2
 1  1  1     0.0000000000e+00
 1  1  2    -6.2136264162e-02
 1  1  3    -4.3936973747e-02
 1  2  1    -5.9443659419e-02
 1  2  2     0.0000000000e+00
 1  2  3     0.0000000000e+00
 1  3  1    -4.2033014674e-02
 1  3  2     0.0000000000e+00
 1  3  3     0.0000000000e+00
 2  1  1    -5.9443659419e-02
 2  1  2     0.0000000000e+00
 2  1  3     0.0000000000e+00
 2  2  1     0.0000000000e+00
 2  2  2    -2.0314957546e+00
 2  2  3    -1.3524183947e+00
 2  3  1     0.0000000000e+00
 2  3  2    -1.3505144356e+00
 2  3  3    -9.8467974521e-01
 3  1  1    -4.2033014674e-02
 3  1  2     0.0000000000e+00
 3  1  3     0.0000000000e+00
 3  2  1     0.0000000000e+00
 3  2  2    -1.3505144356e+00
 3  2  3    -9.8467974521e-01
 3  3  1     0.0000000000e+00
 3  3  2    -9.8737234995e-01
 3  3  3    -7.8224371356e-01

    7
0.0000000000e+00 0.0000000000e+00 0.0000000000e+00
1.9990437153e+00 3.4624452813e+00 9.8600000000e-14
     1      1      1
 1  1  1     8.2118446162e-03
 1  1  2    -4.9360847123e-02
 1  1  3    -1.9284329113e-02
 1  2  1    -1.7043755645e-04
 1  2  2    -3.7005549496e-02
 1  2  3    -1.1133812604e-02
 1  3  1     2.4426571287e-03
 1  3  2     2.6498431461e-02
 1  3  3     2.6227965889e-02
 2  1  1    -1.7043755645e-04
 2  1  2    -3.7005549496e-02
 2  1  3    -1.1133812604e-02
 2  2  1    -6.5405645702e-02
 2  2  2    -4.9701722232e-02
 2  2  3     1.9284329112e-02
 2  3  1    -2.3677893959e-02
 2  3  2    -2.4426571290e-03
 2  3  3     4.5428169499e-02
 3  1  1     2.4426571287e-03
 3  1  2     2.6498431461e-02
 3  1  3     2.6227965889e-02
 3  2  1    -2.3677893959e-02
 3  2  2    -2.4426571290e-03
 3  2  3     4.5428169499e-02
 3  3  1    -1.9912140298e-02
 3  3  2    -3.4488838683e-02
 3  3  3     0.0000000000e+00

    8
0.0000000000e+00 0.0000000000e+00 0.0000000000e+00
-3.9980874305e+00 -6.9248905627e+00 -1.9720000000e-13
     1      1      2
 1  1  1     2.1273943576e-13
 1  1  2     1.9965686916e-02
 1  1  3    -2.4582779333e-02
 1  2  1     2.4741604463e-02
 1  2  2    -1.1523223036e-12
 1  2  3     1.0617150096e-12
 1  3  1    -2.6271321175e-02
 1  3  2     9.8916556078e-13
 1  3  3     7.1201297133e-14
 2  1  1     2.4741604463e-02
 2  1  2    -1.1355300579e-12
 2  1  3     1.0537048397e-12
 2  2  1    -1.1112589052e-12
 2  2  2    -1.2431854570e-01
 2  2  3     6.7289480647e-02
 2  3  1     1.0244374889e-12
 2  3  2     6.5600938806e-02
 2  3  3     8.7814930961e-03
 3  1  1    -2.6271321175e-02
 3  1  2     9.8650781556e-13
 3  1  3     7.1582552741e-14
 3  2  1     1.0345785842e-12
 3  2  2     6.5600938806e-02
 3  2  3     8.7814930961e-03
 3  3  1     2.2685451912e-14
 3  3  2     4.0055755494e-03
 3  3  3    -7.2285790904e-03

    9
0.0000000000e+00 0.0000000000e+00 0.0000000000e+00
-1.9990437152e+00 3.4624452813e+00 3.6790000000e-13
     1      1      1
 1  1  1    -8.2118446179e-03
 1  1  2    -4.9360847122e-02
 1  1  3    -1.9284329113e-02
 1  2  1    -1.7043755283e-04
 1  2  2     3.7005549495e-02
 1  2  3     1.1133812606e-02
 1  3  1     2.4426571285e-03
 1  3  2    -2.6498431461e-02
 1  3  3    -2.6227965888e-02
 2  1  1    -1.7043755283e-04
 2  1  2     3.7005549495e-02
 2  1  3     1.1133812606e-02
 2  2  1     6.5405645701e-02
 2  2  2    -4.9701722232e-02
 2  2  3     1.9284329112e-02
 2  3  1     2.3677893960e-02
 2  3  2    -2.4426571290e-03
 2  3  3     4.5428169499e-02
 3  1  1     2.4426571285e-03
 3  1  2    -2.6498431461e-02
 3  1  3    -2.6227965888e-02
 3  2  1     2.3677893960e-02
 3  2  2    -2.4426571290e-03
 3  2  3     4.5428169499e-02
 3  3  1     1.9912140297e-02
 3  3  2    -3.4488838683e-02
 3  3  3     0.0000000000e+00

   10
0.0000000000e+00 0.0000000000e+00 0.0000000000e+00
-1.9990437153e+00 -3.4624452813e+00 -9.8600000000e-14
     1      1      1
 1  1  1    -8.2118446162e-03
 1  1  2     4.9360847123e-02
 1  1  3     1.9284329113e-02
 1  2  1     1.7043755645e-04
 1  2  2     3.7005549496e-02
 1  2  3     1.1133812604e-02
 1  3  1    -2.4426571287e-03
 1  3  2    -2.6498431461e-02
 1  3  3    -2.6227965889e-02
 2  1  1     1.7043755645e-04
 2  1  2     3.7005549496e-02
 2  1  3     1.1133812604e-02
 2  2  1     6.5405645702e-02
 2  2  2     4.9701722232e-02
 2  2  3    -1.9284329112e-02
 2  3  1     2.3677893959e-02
 2  3  2     2.4426571290e-03
 2  3  3    -4.5428169499e-02
 3  1  1    -2.4426571287e-03
 3  1  2    -2.6498431461e-02
 3  1  3    -2.6227965889e-02
 3  2  1     2.3677893959e-02
 3  2  2     2.4426571290e-03
 3  2  3    -4.5428169499e-02
 3  3  1     1.9912140298e-02
 3  3  2     3.4488838683e-02
 3  3  3     0.0000000000e+00

   11
0.0000000000e+00 0.0000000000e+00 0.0000000000e+00
-1.9990437153e+00 -3.4624452813e+00 -9.8600000000e-14
     1      1      2
 1  1  1    -1.3586879537e+00
 1  1  2     7.2499519645e-01
 1  1  3    -1.0252980394e+00
 1  2  1     7.2364889407e-01
 1  2  2    -4.5211869659e-01
 1  2  3     5.6658907547e-01
 1  3  1    -1.0233940803e+00
 1  3  2     5.6658907547e-01
 1  3  3    -8.5275767393e-01
 2  1  1     7.2364889407e-01
 2  1  2    -4.5211869659e-01
 2  1  3     5.6658907547e-01
 2  2  1    -4.5445056070e-01
 2  2  2     3.2182081300e-01
 2  2  3    -3.7105732902e-01
 2  3  1     5.6658907547e-01
 2  3  2    -3.6915336994e-01
 2  3  3     4.9233987263e-01
 3  1  1    -1.0233940803e+00
 3  1  2     5.6658907547e-01
 3  1  3    -8.5275767393e-01
 3  2  1     5.6658907547e-01
 3  2  2    -3.6915336994e-01
 3  2  3     4.9233987263e-01
 3  3  1    -8.5508953804e-01
 3  3  2     4.9368617501e-01
 3  3  3    -7.8224371356e-01

   12
0.0000000000e+00 0.0000000000e+00 0.0000000000e+00
1.9990437152e+00 -3.4624452813e+00 -3.6790000000e-13
     1      1      1
 1  1  1     8.2118446179e-03
 1  1  2     4.9360847122e-02
 1  1  3     1.9284329113e-02
 1  2  1     1.7043755283e-04
 1  2  2    -3.7005549495e-02
 1  2  3    -1.1133812606e-02
 1  3  1    -2.4426571285e-03
 1  3  2     2.6498431461e-02
 1  3  3     2.6227965888e-02
 2  1  1     1.7043755283e-04
 2  1  2    -3.7005549495e-02
 2  1  3    -1.1133812606e-02
 2  2  1    -6.5405645701e-02
 2  2  2     4.9701722232e-02
 2  2  3    -1.9284329112e-02
 2  3  1    -2.3677893960e-02
 2  3  2     2.4426571290e-03
 2  3  3    -4.5428169499e-02
 3  1  1    -2.4426571285e-03
 3  1  2     2.6498431461e-02
 3  1  3     2.6227965888e-02
 3  2  1    -2.3677893960e-02
 3  2  2     2.4426571290e-03
 3  2  3    -4.5428169499e-02
 3  3  1    -1.9912140297e-02
 3  3  2     3.4488838683e-02
 3  3  3     0.0000000000e+00

   13
0.0000000000e+00 0.0000000000e+00 0.0000000000e+00
-5.9971311457e+00 -3.4624452813e+00 1.7070000000e-13
     1      1      2
 1  1  1     1.3586879538e+00
 1  1  2     7.2499519647e-01
 1  1  3    -1.0252980394e+00
 1  2  1     7.2364889409e-01
 1  2  2     4.5211869658e-01
 1  2  3    -5.6658907546e-01
 1  3  1    -1.0233940804e+00
 1  3  2    -5.6658907546e-01
 1  3  3     8.5275767391e-01
 2  1  1     7.2364889409e-01
 2  1  2     4.5211869658e-01
 2  1  3    -5.6658907546e-01
 2  2  1     4.5445056069e-01
 2  2  2     3.2182081298e-01
 2  2  3    -3.7105732899e-01
 2  3  1    -5.6658907546e-01
 2  3  2    -3.6915336992e-01
 2  3  3     4.9233987260e-01
 3  1  1    -1.0233940804e+00
 3  1  2    -5.6658907546e-01
 3  1  3     8.5275767391e-01
 3  2  1    -5.6658907546e-01
 3  2  2    -3.6915336992e-01
 3  2  3     4.9233987260e-01
 3  3  1     8.5508953802e-01
 3  3  2     4.9368617497e-01
 3  3  3    -7.8224371350e-01

   14
0.0000000000e+00 0.0000000000e+00 0.0000000000e+00
1.9990437153e+00 1.1541484271e+00 3.2644247172e+00
     1      1      1
 1  1  1     8.2118446167e-03
 1  1  2    -3.4635055556e-02
 1  1  3    -4.0109743263e-02
 1  2  1     2.2461467079e-03
 1  2  2     2.4030653596e-02
 1  2  3     4.9188749098e-03
 1  3  1    -9.7490911158e-04
 1  3  2    -3.2713369155e-02
 1  3  3    -3.4808237201e-02
 2  1  1     2.2461467079e-03
 2  1  2     2.4030653596e-02
 2  1  3     4.9188749098e-03
 2  2  1    -3.9849462572e-02
 2  2  2     1.6369068314e-02
 2  2  3    -4.5789570770e-02
 2  3  1    -3.2713369155e-02
 2  3  2     3.6799235867e-02
 2  3  3    -2.0096545117e-02
 3  1  1    -9.7490911158e-04
 3  1  2    -3.2713369155e-02
 3  1  3    -3.4808237201e-02
 3  2  1    -3.2713369155e-02
 3  2  2     3.6799235867e-02
 3  2  3    -2.0096545117e-02
 3  3  1    -4.5468323427e-02
 3  3  2    -2.6251148769e-02
 3  3  3    -4.0014160980e-02

   15
0.0000000000e+00 0.0000000000e+00 0.0000000000e+00
-3.9980874305e+00 -2.3082968542e+00 -6.5288494344e+00
     1      1      2
 1  1  1    -5.9000524559e-14
 1  1  2    -1.6521637651e-02
 1  1  3     2.7018089923e-02
 1  2  1    -1.6521637651e-02
 1  2  2     4.8624771913e-13
 1  2  3     4.0609306190e-13
 1  3  1     3.2083715449e-02
 1  3  2     5.3560407822e-13
 1  3  3    -1.5782602924e-12
 2  1  1    -1.6521637651e-02
 2  1  2     4.9000410193e-13
 2  1  3     4.1490039217e-13
 2  2  1     4.6309598887e-13
 2  2  2     1.6521637650e-02
 2  2  3     2.7018089924e-02
 2  3  1     5.4916866089e-13
 2  3  2     3.2083715449e-02
 2  3  3     1.6023004350e-12
 3  1  1     3.2083715449e-02
 3  1  2     5.3965859920e-13
 3  1  3    -1.5832617269e-12
 3  2  1     5.3962735733e-13
 3  2  2     3.2083715449e-02
 3  2  3     1.6184523827e-12
 3  3  1    -1.5870948529e-12
 3  3  2     1.6255881237e-12
 3  3  3    -1.6047054652e-01

   16
0.0000000000e+00 0.0000000000e+00 0.0000000000e+00
-1.9990437152e+00 1.1541484271e+00 3.2644247172e+00
     1      1      1
 1  1  1    -8.2118446184e-03
 1  1  2    -3.4635055556e-02
 1  1  3    -4.0109743262e-02
 1  2  1     2.2461467090e-03
 1  2  2    -2.4030653595e-02
 1  2  3    -4.9188749115e-03
 1  3  1    -9.7490910810e-04
 1  3  2     3.2713369155e-02
 1  3  3     3.4808237200e-02
 2  1  1     2.2461467090e-03
 2  1  2    -2.4030653595e-02
 2  1  3    -4.9188749115e-03
 2  2  1     3.9849462571e-02
 2  2  2     1.6369068314e-02
 2  2  3    -4.5789570770e-02
 2  3  1     3.2713369155e-02
 2  3  2     3.6799235867e-02
 2  3  3    -2.0096545117e-02
 3  1  1    -9.7490910810e-04
 3  1  2     3.2713369155e-02
 3  1  3     3.4808237200e-02
 3  2  1     3.2713369155e-02
 3  2  2     3.6799235867e-02
 3  2  3    -2.0096545117e-02
 3  3  1     4.5468323425e-02
 3  3  2    -2.6251148769e-02
 3  3  3    -4.0014160980e-02

   17
0.0000000000e+00 0.0000000000e+00 0.0000000000e+00
9.8680508209e-11 4.6165937084e+00 3.2644247172e+00
     1      1      1
 1  1  1     0.0000000000e+00
 1  1  2     7.1187904978e-02
 1  1  3     5.0337450349e-02
 1  2  1     3.9608846219e-02
 1  2  2     0.0000000000e+00
 1  2  3     0.0000000000e+00
 1  3  1     2.8007683757e-02
 1  3  2     0.0000000000e+00
 1  3  3     0.0000000000e+00
 2  1  1     3.9608846219e-02
 2  1  2     0.0000000000e+00
 2  1  3     0.0000000000e+00
 2  2  1     0.0000000000e+00
 2  2  2    -4.0933883976e-01
 2  2  3    -3.4546163691e-01
 2  3  1     0.0000000000e+00
 2  3  2    -3.6779140350e-01
 2  3  3    -2.4026337237e-01
 3  1  1     2.8007683757e-02
 3  1  2     0.0000000000e+00
 3  1  3     0.0000000000e+00
 3  2  1     0.0000000000e+00
 3  2  2    -3.6779140350e-01
 3  2  3    -2.4026337237e-01
 3  3  1     0.0000000000e+00
 3  3  2    -2.0868431361e-01
 3  3  3    -9.1546725768e-02

   18
0.0000000000e+00 0.0000000000e+00 0.0000000000e+00
-2.7755575616e-16 -2.3082968543e+00 3.2644247172e+00
     1      1      1
 1  1  1     0.0000000000e+00
 1  1  2     3.4386238273e-02
 1  1  3    -4.8629484523e-02
 1  2  1    -3.9376166257e-02
 1  2  2    -1.6908815564e-13
 1  2  3    -1.1882115990e-13
 1  3  1     5.5686308354e-02
 1  3  2     2.3837671082e-13
 1  3  3     1.6908692567e-13
 2  1  1    -3.9376166257e-02
 2  1  2    -1.6909038867e-13
 2  1  3    -1.1882293844e-13
 2  2  1    -3.3747508300e-13
 2  2  2     2.1457362138e-03
 2  2  3    -3.7269829511e-02
 2  3  1     1.1930842058e-13
 2  3  2    -1.9861981600e-02
 2  3  3     4.0193090236e-02
 3  1  1     5.5686308354e-02
 3  1  2     2.3838394017e-13
 3  1  3     1.6908972124e-13
 3  2  1     1.1932337823e-13
 3  2  2    -1.9861981600e-02
 3  2  3     4.0193090236e-02
 3  3  1     3.3747861294e-13
 3  3  2     5.2502297540e-02
 3  3  3    -4.0014160979e-02

   19
0.0000000000e+00 0.0000000000e+00 0.0000000000e+00
3.9980874304e+00 -2.3082968543e+00 3.2644247172e+00
     1      1      1
 1  1  1    -2.3330960842e-01
 1  1  2     1.7431021146e-01
 1  1  3    -2.4651186509e-01
 1  2  1     1.9009974084e-01
 1  2  2    -8.6885958528e-02
 1  2  3     1.7138603219e-01
 1  3  1    -2.6884163168e-01
 1  3  2     1.7138603219e-01
 1  3  3    -2.0807418407e-01
 2  1  1     1.9009974084e-01
 2  1  2    -8.6885958528e-02
 2  1  3     1.7138603219e-01
 2  2  1    -5.9537691414e-02
 2  2  2    -5.2347440556e-03
 2  2  3    -4.8612321476e-02
 2  3  1     1.7138603219e-01
 2  3  2    -7.0942088068e-02
 2  3  3     1.2013168619e-01
 3  1  1    -2.6884163168e-01
 3  1  2     1.7138603219e-01
 3  1  3    -2.0807418407e-01
 3  2  1     1.7138603219e-01
 3  2  2    -7.0942088068e-02
 3  2  3     1.2013168619e-01
 3  3  1    -1.8072591696e-01
 3  3  2     1.0434215681e-01
 3  3  3    -9.1546725768e-02

   20
0.0000000000e+00 0.0000000000e+00 0.0000000000e+00
-3.9980874304e+00 -2.3082968543e+00 3.2644247172e+00
     1      1      1
 1  1  1     2.3330960844e-01
 1  1  2     1.7431021146e-01
 1  1  3    -2.4651186510e-01
 1  2  1     1.9009974084e-01
 1  2  2     8.6885958523e-02
 1  2  3    -1.7138603218e-01
 1  3  1    -2.6884163169e-01
 1  3  2    -1.7138603218e-01
 1  3  3     2.0807418406e-01
 2  1  1     1.9009974084e-01
 2  1  2     8.6885958523e-02
 2  1  3    -1.7138603218e-01
 2  2  1     5.9537691409e-02
 2  2  2    -5.2347440583e-03
 2  2  3    -4.8612321471e-02
 2  3  1    -1.7138603218e-01
 2  3  2    -7.0942088062e-02
 2  3  3     1.2013168618e-01
 3  1  1    -2.6884163169e-01
 3  1  2    -1.7138603218e-01
 3  1  3     2.0807418406e-01
 3  2  1    -1.7138603218e-01
 3  2  2    -7.0942088062e-02
 3  2  3     1.2013168618e-01
 3  3  1     1.8072591695e-01
 3  3  2     1.0434215680e-01
 3  3  3    -9.1546725758e-02

   21
0.0000000000e+00 0.0000000000e+00 0.0000000000e+00
-3.9980874304e+00 -2.3082968543e+00 3.2644247172e+00
     1      1      2
 1  1  1     5.9000524559e-14
 1  1  2     1.6521637651e-02
 1  1  3    -2.7018089923e-02
 1  2  1     1.6521637651e-02
 1  2  2    -4.8624771913e-13
 1  2  3    -4.0609306190e-13
 1  3  1    -3.2083715449e-02
 1  3  2    -5.3560407822e-13
 1  3  3     1.5782602924e-12
 2  1  1     1.6521637651e-02
 2  1  2    -4.9000410193e-13
 2  1  3    -4.1490039217e-13
 2  2  1    -4.6309598887e-13
 2  2  2    -1.6521637650e-02
 2  2  3    -2.7018089924e-02
 2  3  1    -5.4916866089e-13
 2  3  2    -3.2083715449e-02
 2  3  3    -1.6023004350e-12
 3  1  1    -3.2083715449e-02
 3  1  2    -5.3965859920e-13
 3  1  3     1.5832617269e-12
 3  2  1    -5.3962735733e-13
 3  2  2    -3.2083715449e-02
 3  2  3    -1.6184523827e-12
 3  3  1     1.5870948529e-12
 3  3  2    -1.6255881237e-12
 3  3  3     1.6047054652e-01

   22
0.0000000000e+00 0.0000000000e+00 0.0000000000e+00
-1.9990437153e+00 -1.1541484271e+00 -3.2644247172e+00
     1      1      1
 1  1  1    -8.2118446167e-03
 1  1  2     3.4635055556e-02
 1  1  3     4.0109743263e-02
 1  2  1    -2.2461467079e-03
 1  2  2    -2.4030653596e-02
 1  2  3    -4.9188749098e-03
 1  3  1     9.7490911158e-04
 1  3  2     3.2713369155e-02
 1  3  3     3.4808237201e-02
 2  1  1    -2.2461467079e-03
 2  1  2    -2.4030653596e-02
 2  1  3    -4.9188749098e-03
 2  2  1     3.9849462572e-02
 2  2  2    -1.6369068314e-02
 2  2  3     4.5789570770e-02
 2  3  1     3.2713369155e-02
 2  3  2    -3.6799235867e-02
 2  3  3     2.0096545117e-02
 3  1  1     9.7490911158e-04
 3  1  2     3.2713369155e-02
 3  1  3     3.4808237201e-02
 3  2  1     3.2713369155e-02
 3  2  2    -3.6799235867e-02
 3  2  3     2.0096545117e-02
 3  3  1     4.5468323427e-02
 3  3  2     2.6251148769e-02
 3  3  3     4.0014160980e-02

   23
0.0000000000e+00 0.0000000000e+00 0.0000000000e+00
-1.9990437153e+00 -1.1541484271e+00 -3.2644247172e+00
     1      1      2
 1  1  1    -1.3586879538e+00
 1  1  2    -7.2499519647e-01
 1  1  3     1.0252980394e+00
 1  2  1    -7.2364889409e-01
 1  2  2    -4.5211869658e-01
 1  2  3     5.6658907546e-01
 1  3  1     1.0233940804e+00
 1  3  2     5.6658907546e-01
 1  3  3    -8.5275767391e-01
 2  1  1    -7.2364889409e-01
 2  1  2    -4.5211869658e-01
 2  1  3     5.6658907546e-01
 2  2  1    -4.5445056069e-01
 2  2  2    -3.2182081298e-01
 2  2  3     3.7105732899e-01
 2  3  1     5.6658907546e-01
 2  3  2     3.6915336992e-01
 2  3  3    -4.9233987260e-01
 3  1  1     1.0233940804e+00
 3  1  2     5.6658907546e-01
 3  1  3    -8.5275767391e-01
 3  2  1     5.6658907546e-01
 3  2  2     3.6915336992e-01
 3  2  3    -4.9233987260e-01
 3  3  1    -8.5508953802e-01
 3  3  2    -4.9368617497e-01
 3  3  3     7.8224371350e-01

   24
0.0000000000e+00 0.0000000000e+00 0.0000000000e+00
1.9990437152e+00 -1.1541484271e+00 -3.2644247172e+00
     1      1      1
 1  1  1     8.2118446184e-03
 1  1  2     3.4635055556e-02
 1  1  3     4.0109743262e-02
 1  2  1    -2.2461467090e-03
 1  2  2     2.4030653595e-02
 1  2  3     4.9188749115e-03
 1  3  1     9.7490910810e-04
 1  3  2    -3.2713369155e-02
 1  3  3    -3.4808237200e-02
 2  1  1    -2.2461467090e-03
 2  1  2     2.4030653595e-02
 2  1  3     4.9188749115e-03
 2  2  1    -3.9849462571e-02
 2  2  2    -1.6369068314e-02
 2  2  3     4.5789570770e-02
 2  3  1    -3.2713369155e-02
 2  3  2    -3.6799235867e-02
 2  3  3     2.0096545117e-02
 3  1  1     9.7490910810e-04
 3  1  2    -3.2713369155e-02
 3  1  3    -3.4808237200e-02
 3  2  1    -3.2713369155e-02
 3  2  2    -3.6799235867e-02
 3  2  3     2.0096545117e-02
 3  3  1    -4.5468323425e-02
 3  3  2     2.6251148769e-02
 3  3  3     4.0014160980e-02

   25
0.0000000000e+00 0.0000000000e+00 0.0000000000e+00
-5.9971311457e+00 -1.1541484271e+00 -3.2644247172e+00
     1      1      2
 1  1  1     1.3586879537e+00
 1  1  2    -7.2499519645e-01
 1  1  3     1.0252980394e+00
 1  2  1    -7.2364889407e-01
 1  2  2     4.5211869659e-01
 1  2  3    -5.6658907547e-01
 1  3  1     1.0233940803e+00
 1  3  2    -5.6658907547e-01
 1  3  3     8.5275767393e-01
 2  1  1    -7.2364889407e-01
 2  1  2     4.5211869659e-01
 2  1  3    -5.6658907547e-01
 2  2  1     4.5445056070e-01
 2  2  2    -3.2182081300e-01
 2  2  3     3.7105732902e-01
 2  3  1    -5.6658907547e-01
 2  3  2     3.6915336994e-01
 2  3  3    -4.9233987263e-01
 3  1  1     1.0233940803e+00
 3  1  2    -5.6658907547e-01
 3  1  3     8.5275767393e-01
 3  2  1    -5.6658907547e-01
 3  2  2     3.6915336994e-01
 3  2  3    -4.9233987263e-01
 3  3  1     8.5508953804e-01
 3  3  2    -4.9368617501e-01
 3  3  3     7.8224371356e-01

   26
0.0000000000e+00 0.0000000000e+00 0.0000000000e+00
-2.7755575616e-16 2.3082968543e+00 -3.2644247172e+00
     1      1      1
 1  1  1     0.0000000000e+00
 1  1  2    -3.4386238273e-02
 1  1  3     4.8629484523e-02
 1  2  1     3.9376166257e-02
 1  2  2     1.6908815564e-13
 1  2  3     1.1882115990e-13
 1  3  1    -5.5686308354e-02
 1  3  2    -2.3837671082e-13
 1  3  3    -1.6908692567e-13
 2  1  1     3.9376166257e-02
 2  1  2     1.6909038867e-13
 2  1  3     1.1882293844e-13
 2  2  1     3.3747508300e-13
 2  2  2    -2.1457362138e-03
 2  2  3     3.7269829511e-02
 2  3  1    -1.1930842058e-13
 2  3  2     1.9861981600e-02
 2  3  3    -4.0193090236e-02
 3  1  1    -5.5686308354e-02
 3  1  2    -2.3838394017e-13
 3  1  3    -1.6908972124e-13
 3  2  1    -1.1932337823e-13
 3  2  2     1.9861981600e-02
 3  2  3    -4.0193090236e-02
 3  3  1    -3.3747861294e-13
 3  3  2    -5.2502297540e-02
 3  3  3     4.0014160979e-02

   27
0.0000000000e+00 0.0000000000e+00 0.0000000000e+00
3.9980874304e+00 2.3082968543e+00 -3.2644247172e+00
     1      1      1
 1  1  1    -2.3330960844e-01
 1  1  2    -1.7431021146e-01
 1  1  3     2.4651186510e-01
 1  2  1    -1.9009974084e-01
 1  2  2    -8.6885958523e-02
 1  2  3     1.7138603218e-01
 1  3  1     2.6884163169e-01
 1  3  2     1.7138603218e-01
 1  3  3    -2.0807418406e-01
 2  1  1    -1.9009974084e-01
 2  1  2    -8.6885958523e-02
 2  1  3     1.7138603218e-01
 2  2  1    -5.9537691409e-02
 2  2  2     5.2347440583e-03
 2  2  3     4.8612321471e-02
 2  3  1     1.7138603218e-01
 2  3  2     7.0942088062e-02
 2  3  3    -1.2013168618e-01
 3  1  1     2.6884163169e-01
 3  1  2     1.7138603218e-01
 3  1  3    -2.0807418406e-01
 3  2  1     1.7138603218e-01
 3  2  2     7.0942088062e-02
 3  2  3    -1.2013168618e-01
 3  3  1    -1.8072591695e-01
 3  3  2    -1.0434215680e-01
 3  3  3     9.1546725758e-02

   28
0.0000000000e+00 0.0000000000e+00 0.0000000000e+00
-3.9980874304e+00 2.3082968543e+00 -3.2644247172e+00
     1      1      1
 1  1  1     2.3330960842e-01
 1  1  2    -1.7431021146e-01
 1  1  3     2.4651186509e-01
 1  2  1    -1.9009974084e-01
 1  2  2     8.6885958528e-02
 1  2  3    -1.7138603219e-01
 1  3  1     2.6884163168e-01
 1  3  2    -1.7138603219e-01
 1  3  3     2.0807418407e-01
 2  1  1    -1.9009974084e-01
 2  1  2     8.6885958528e-02
 2  1  3    -1.7138603219e-01
 2  2  1     5.9537691414e-02
 2  2  2     5.2347440556e-03
 2  2  3     4.8612321476e-02
 2  3  1    -1.7138603219e-01
 2  3  2     7.0942088068e-02
 2  3  3    -1.2013168619e-01
 3  1  1     2.6884163168e-01
 3  1  2    -1.7138603219e-01
 3  1  3     2.0807418407e-01
 3  2  1    -1.7138603219e-01
 3  2  2     7.0942088068e-02
 3  2  3    -1.2013168619e-01
 3  3  1     1.8072591696e-01
 3  3  2    -1.0434215681e-01
 3  3  3     9.1546725768e-02

   29
0.0000000000e+00 0.0000000000e+00 0.0000000000e+00
-3.9980874304e+00 2.3082968543e+00 -3.2644247172e+00
     1      1      2
 1  1  1    -2.1273943576e-13
 1  1  2    -1.9965686916e-02
 1  1  3     2.4582779333e-02
 1  2  1    -2.4741604463e-02
 1  2  2     1.1523223036e-12
 1  2  3    -1.0617150096e-12
 1  3  1     2.6271321175e-02
 1  3  2    -9.8916556078e-13
 1  3  3    -7.1201297133e-14
 2  1  1    -2.4741604463e-02
 2  1  2     1.1355300579e-12
 2  1  3    -1.0537048397e-12
 2  2  1     1.1112589052e-12
 2  2  2     1.2431854570e-01
 2  2  3    -6.7289480647e-02
 2  3  1    -1.0244374889e-12
 2  3  2    -6.5600938806e-02
 2  3  3    -8.7814930961e-03
 3  1  1     2.6271321175e-02
 3  1  2    -9.8650781556e-13
 3  1  3    -7.1582552741e-14
 3  2  1    -1.0345785842e-12
 3  2  2    -6.5600938806e-02
 3  2  3    -8.7814930961e-03
 3  3  1    -2.2685451912e-14
 3  3  2    -4.0055755494e-03
 3  3  3     7.2285790904e-03

   30
0.0000000000e+00 0.0000000000e+00 0.0000000000e+00
-3.9980874305e+00 -4.6165937084e+00 -3.2644247172e+00
     1      1      2
 1  1  1     0.0000000000e+00
 1  1  2     6.2136264162e-02
 1  1  3     4.3936973747e-02
 1  2  1     5.9443659419e-02
 1  2  2     0.0000000000e+00
 1  2  3     0.0000000000e+00
 1  3  1     4.2033014674e-02
 1  3  2     0.0000000000e+00
 1  3  3     0.0000000000e+00
 2  1  1     5.9443659419e-02
 2  1  2     0.0000000000e+00
 2  1  3     0.0000000000e+00
 2  2  1     0.0000000000e+00
 2  2  2     2.0314957546e+00
 2  2  3     1.3524183947e+00
 2  3  1     0.0000000000e+00
 2  3  2     1.3505144356e+00
 2  3  3     9.8467974521e-01
 3  1  1     4.2033014674e-02
 3  1  2     0.0000000000e+00
 3  1  3     0.0000000000e+00
 3  2  1     0.0000000000e+00
 3  2  2     1.3505144356e+00
 3  2  3     9.8467974521e-01
 3  3  1     0.0000000000e+00
 3  3  2     9.8737234995e-01
 3  3  3     7.8224371356e-01

   31
0.0000000000e+00 0.0000000000e+00 0.0000000000e+00
-9.8681618432e-11 -4.6165937084e+00 -3.2644247172e+00
     1      1      1
 1  1  1     0.0000000000e+00
 1  1  2    -7.1187904978e-02
 1  1  3    -5.0337450349e-02
 1  2  1    -3.9608846219e-02
 1  2  2     0.0000000000e+00
 1  2  3     0.0000000000e+00
 1  3  1    -2.8007683757e-02
 1  3  2     0.0000000000e+00
 1  3  3     0.0000000000e+00
 2  1  1    -3.9608846219e-02
 2  1  2     0.0000000000e+00
 2  1  3     0.0000000000e+00
 2  2  1     0.0000000000e+00
 2  2  2     4.0933883976e-01
 2  2  3     3.4546163691e-01
 2  3  1     0.0000000000e+00
 2  3  2     3.6779140350e-01
 2  3  3     2.4026337237e-01
 3  1  1    -2.8007683757e-02
 3  1  2     0.0000000000e+00
 3  1  3     0.0000000000e+00
 3  2  1     0.0000000000e+00
 3  2  2     3.6779140350e-01
 3  2  3     2.4026337237e-01
 3  3  1     0.0000000000e+00
 3  3  2     2.0868431361e-01
 3  3  3     9.1546725768e-02

   32
0.0000000000e+00 0.0000000000e+00 0.0000000000e+00
-9.8679953098e-11 -4.6165937084e+00 -3.2644247172e+00
     1      1      2
 1  1  1     6.5711137030e-02
 1  1  2    -6.2679947117e-02
 1  1  3    -4.4321415650e-02
 1  2  1    -6.0291988343e-02
 1  2  2     2.0525023704e-02
 1  2  3     3.9781855523e-02
 1  3  1    -4.2632873809e-02
 1  3  2     3.9781855523e-02
 1  3  3    -7.6049961039e-03
 2  1  1    -6.0291988343e-02
 2  1  2     2.0525023704e-02
 2  1  3     3.9781855523e-02
 2  2  1     2.4661089626e-02
 2  2  2     1.0503517729e-02
 2  2  3     1.6147143382e-03
 2  3  1     3.9781855523e-02
 2  3  2     3.3032561801e-03
 2  3  3     4.3907465477e-03
 3  1  1    -4.2632873809e-02
 3  1  2     3.9781855523e-02
 3  1  3    -7.6049961039e-03
 3  2  1     3.9781855523e-02