 128  128
   1   1
     1.850807437070269    -0.000000000000156    -0.000000000000104
    -0.000000000000156     1.850807437069890     0.000000000000198
    -0.000000000000104     0.000000000000198     1.850807437070005
   1   2
    -0.252640192712207     0.000000000002175     0.000000000001530
     0.000000000002252     0.113275632250678    -0.055189947441097
     0.000000000001592    -0.055189947441186     0.152300818338611
   1   3
    -0.048356259803042     0.000000000000184     0.000000000000106
     0.000000000000250     0.006700338886582    -0.010977667655291
     0.000000000000201    -0.010977667655419     0.014462722127248
   1   4
    -0.252640192712207     0.000000000002175     0.000000000001530
     0.000000000002252     0.113275632250678    -0.055189947441097
     0.000000000001592    -0.055189947441186     0.152300818338611
   1   5
     0.021796676008938    -0.158446200030683    -0.047795896518763
    -0.158446200033052    -0.161161236467833     0.027594973720917
    -0.047795896518383     0.027594973721658     0.152300818341793
   1   6
    -0.035653352683571    -0.012602449141385    -0.002281277561854
    -0.012602449141170    -0.021101297874478    -0.001317096214328
    -0.002281277561173    -0.001317096214442     0.021928593852305
   1   7
    -0.035653352683331     0.012602449141755     0.002281277562055
     0.012602449141806    -0.021101297875037    -0.001317096214517
     0.002281277562162    -0.001317096214625     0.021928593852205
   1   8
     0.021796676011292     0.158446200033688     0.047795896518987
     0.158446200029233    -0.161161236473090     0.027594973719010
     0.047795896520972     0.027594973715402     0.152300818339176
   1   9
    -0.007063810785690    -0.023840206555391    -0.009506939064061
    -0.023840206555702    -0.034592110130202     0.005488833827927
    -0.009506939063987     0.005488833827988     0.014462722127663
   1  10
    -0.013825270470458    -0.000000000000016    -0.000000000000039
    -0.000000000000159    -0.042929380087637     0.002634192428787
     0.000000000000312     0.002634192427971     0.021928593852355
   1  11
    -0.007063810785694     0.023840206555839     0.009506939064132
     0.023840206555230    -0.034592110130829     0.005488833827382
     0.009506939064463     0.005488833826764     0.014462722127378
   1  12
    -0.013825270470458    -0.000000000000016    -0.000000000000039
    -0.000000000000159    -0.042929380087637     0.002634192428787
     0.000000000000312     0.002634192427971     0.021928593852355
   1  13
     0.021796676008938    -0.158446200030683    -0.047795896518763
    -0.158446200033052    -0.161161236467833     0.027594973720917
    -0.047795896518383     0.027594973721658     0.152300818341793
   1  14
     0.021796676011292     0.158446200033688     0.047795896518987
     0.158446200029233    -0.161161236473090     0.027594973719010
     0.047795896520972     0.027594973715402     0.152300818339176
   1  15
    -0.035653352683331     0.012602449141755     0.002281277562055
     0.012602449141806    -0.021101297875037    -0.001317096214517
     0.002281277562162    -0.001317096214625     0.021928593852205
   1  16
    -0.035653352683571    -0.012602449141385    -0.002281277561854
    -0.012602449141170    -0.021101297874478    -0.001317096214328
    -0.002281277561173    -0.001317096214442     0.021928593852305
   1  17
     0.021796676009802    -0.097877803398304    -0.133452544488144
    -0.097877803397228     0.134816228290852    -0.077048862479824
    -0.133452544492460    -0.077048862480667    -0.143676646420990
   1  18
    -0.035653352683523    -0.006351625492002    -0.011121277142761
    -0.006351625491356     0.016319647958583    -0.014547398492253
    -0.011121277142831    -0.014547398492603    -0.015492351981147
   1  19
    -0.035653352683282     0.006351625492321     0.011121277142962
     0.006351625492409     0.016319647958297    -0.014547398492620
     0.011121277143116    -0.014547398492879    -0.015492351981520
   1  20
     0.021796676011322     0.097877803398560     0.133452544490709
     0.097877803398389     0.134816228286225    -0.077048862486278
     0.133452544487538    -0.077048862483404    -0.143676646423391
   1  21
    -0.002174271233638    -0.025680782179326    -0.018159055225351
    -0.025680782179636    -0.017159433490926    -0.002357609281385
    -0.018159055225778    -0.002357609281415    -0.015492351980751
   1  22
    -0.015279906263129    -0.000000000000246    -0.000000000000170
    -0.000000000000149    -0.015279906263497     0.000000000000217
    -0.000000000000120     0.000000000000159    -0.015279906263298
   1  23
    -0.002174271233001     0.025680782179141     0.018159055225273
     0.025680782179299    -0.017159433492128    -0.002357609282013
     0.018159055225561    -0.002357609282161    -0.015492351981391
   1  24
     0.004486771023147    -0.000000000000284    -0.000000000000191
    -0.000000000001223    -0.100004962438029    -0.073886813308972
    -0.000000000000834    -0.073886813309094    -0.047759095708478
   1  25
     0.008827066829349    -0.019329156687815    -0.007037778082677
    -0.019329156687405    -0.028160771553976     0.016905007774656
    -0.007037778082761     0.016905007774918    -0.015492351980613
   1  26
     0.008827066829782     0.019329156687391     0.007037778082350
     0.019329156686777    -0.028160771554814     0.016905007774280
     0.007037778082546     0.016905007774460    -0.015492351980844
   1  27
    -0.010723983486308     0.010926146233496    -0.005324566932334
     0.010926146233148    -0.023340410424185    -0.003074140151706
    -0.005324566932077    -0.003074140152093    -0.008763260712146
   1  28
    -0.010723983485921    -0.010926146233223     0.005324566932228
    -0.010926146233332    -0.023340410424007    -0.003074140151636
     0.005324566932332    -0.003074140151584    -0.008763260712511
   1  29
     0.191326004429779    -0.000000000001730    -0.000000000001216
    -0.000000000003034    -0.034713100129662     0.154097724966413
    -0.000000000002124     0.154097724970796    -0.143676646419511
   1  30
    -0.073882029072855     0.045246247832296    -0.063987857329441
     0.045246247832293    -0.021636162343436     0.036943406654887
    -0.063987857329393     0.036943406654787    -0.047759095706591
   1  31
    -0.029648623893169     0.000000000000028    -0.000000000000005
     0.000000000000133    -0.004415770017310     0.006148280303478
     0.000000000000096     0.006148280303432    -0.008763260712139
   1  32
    -0.073882029072973    -0.045246247831427     0.063987857330189
    -0.045246247830070    -0.021636162341373     0.036943406653286
     0.063987857330877     0.036943406654778    -0.047759095708567
   1  33
    -0.007063810785717    -0.016909963625698    -0.019307782605738
    -0.016909963625453     0.012462133317241    -0.011147353484149
    -0.019307782606329    -0.011147353484302    -0.032591521320308
   1  34
    -0.013825270470379    -0.000000000000003    -0.000000000000034
     0.000000000000100     0.016377845929337    -0.018334078416209
    -0.000000000000219    -0.018334078415779    -0.037378632165287
   1  35
    -0.007063810785662     0.016909963625839     0.019307782606176
     0.016909963625850     0.012462133316391    -0.011147353485169
     0.019307782605693    -0.011147353484814    -0.032591521320343
   1  36
    -0.013825270470379    -0.000000000000003    -0.000000000000034
     0.000000000000100     0.016377845929337    -0.018334078416209
    -0.000000000000219    -0.018334078415779    -0.037378632165287
   1  37
     0.008827066829343    -0.013078333038115    -0.015877777663991
    -0.013078333038030    -0.006274491370407     0.009167039208656
    -0.015877777663772     0.009167039208528    -0.037378632164599
   1  38
     0.008827066829831     0.013078333037581     0.015877777663693
     0.013078333037653    -0.006274491370988     0.009167039208089
     0.015877777663270     0.009167039208051    -0.037378632165081
   1  39
    -0.010723983486251    -0.001378001101891     0.012076125102633
    -0.001378001101762    -0.012315162100279    -0.006972154078888
     0.012076125102388    -0.006972154078763    -0.019788509036274
   1  40
    -0.010723983486003     0.001378001102040    -0.012076125102394
     0.001378001101933    -0.012315162100215    -0.006972154078369
    -0.012076125102564    -0.006972154078727    -0.019788509036348
   1  41
     0.022225105368424    -0.000000000000233    -0.000000000000160
    -0.000000000000393    -0.016826782836931     0.022294706969454
    -0.000000000000276     0.022294706970019    -0.032591521320085
   1  42
    -0.013110751407374     0.000000000000066     0.000000000000053
     0.000000000000208    -0.009928394178935     0.013944308157197
     0.000000000000155     0.013944308157481    -0.019788509036175
   1  43
    -0.043120249596212    -0.000000000000121    -0.000000000000137
    -0.000000000000135    -0.043120249596430     0.000000000000150
    -0.000000000000075     0.000000000000092    -0.043120249596320
   1  44
    -0.013110751407374     0.000000000000066     0.000000000000053
     0.000000000000208    -0.009928394178935     0.013944308157197
     0.000000000000155     0.013944308157481    -0.019788509036175
   1  45
     0.008827066829343    -0.013078333038115    -0.015877777663991
    -0.013078333038030    -0.006274491370407     0.009167039208656
    -0.015877777663772     0.009167039208528    -0.037378632164599
   1  46
    -0.010723983486003     0.001378001102040    -0.012076125102394
     0.001378001101933    -0.012315162100215    -0.006972154078369
    -0.012076125102564    -0.006972154078727    -0.019788509036348
   1  47
    -0.010723983486251    -0.001378001101891     0.012076125102633
    -0.001378001101762    -0.012315162100279    -0.006972154078888
     0.012076125102388    -0.006972154078763    -0.019788509036274
   1  48
     0.008827066829831     0.013078333037581     0.015877777663693
     0.013078333037653    -0.006274491370988     0.009167039208089
     0.015877777663270     0.009167039208051    -0.037378632165081
   1  49
     0.021796676009803    -0.097877803398304    -0.133452544488144
    -0.097877803397228     0.134816228290852    -0.077048862479824
    -0.133452544492460    -0.077048862480667    -0.143676646420990
   1  50
     0.021796676011322     0.097877803398560     0.133452544490709
     0.097877803398389     0.134816228286225    -0.077048862486278
     0.133452544487538    -0.077048862483404    -0.143676646423391
   1  51
    -0.035653352683282     0.006351625492321     0.011121277142962
     0.006351625492409     0.016319647958297    -0.014547398492620
     0.011121277143116    -0.014547398492879    -0.015492351981520
   1  52
    -0.035653352683523    -0.006351625492002    -0.011121277142761
    -0.006351625491356     0.016319647958583    -0.014547398492253
    -0.011121277142831    -0.014547398492603    -0.015492351981147
   1  53
     0.191326004429779    -0.000000000001730    -0.000000000001216
    -0.000000000003034    -0.034713100129662     0.154097724966413
    -0.000000000002124     0.154097724970796    -0.143676646419511
   1  54
    -0.073882029072973    -0.045246247831427     0.063987857330189
    -0.045246247830070    -0.021636162341373     0.036943406653286
     0.063987857330877     0.036943406654778    -0.047759095708567
   1  55
    -0.029648623893169     0.000000000000028    -0.000000000000005
     0.000000000000133    -0.004415770017310     0.006148280303478
     0.000000000000096     0.006148280303432    -0.008763260712139
   1  56
    -0.073882029072855     0.045246247832296    -0.063987857329441
     0.045246247832293    -0.021636162343436     0.036943406654887
    -0.063987857329393     0.036943406654787    -0.047759095706591
   1  57
     0.008827066829349    -0.019329156687815    -0.007037778082677
    -0.019329156687405    -0.028160771553976     0.016905007774656
    -0.007037778082761     0.016905007774918    -0.015492351980613
   1  58
    -0.010723983485921    -0.010926146233223     0.005324566932228
    -0.010926146233332    -0.023340410424007    -0.003074140151636
     0.005324566932332    -0.003074140151584    -0.008763260712511
   1  59
    -0.010723983486308     0.010926146233496    -0.005324566932334
     0.010926146233148    -0.023340410424185    -0.003074140151706
    -0.005324566932077    -0.003074140152093    -0.008763260712146
   1  60
     0.008827066829782     0.019329156687391     0.007037778082350
     0.019329156686777    -0.028160771554814     0.016905007774280
     0.007037778082546     0.016905007774460    -0.015492351980844
   1  61
    -0.002174271233638    -0.025680782179326    -0.018159055225351
    -0.025680782179636    -0.017159433490926    -0.002357609281385
    -0.018159055225778    -0.002357609281415    -0.015492351980751
   1  62
     0.004486771023147    -0.000000000000284    -0.000000000000191
    -0.000000000001223    -0.100004962438029    -0.073886813308972
    -0.000000000000834    -0.073886813309094    -0.047759095708478
   1  63
    -0.002174271233001     0.025680782179141     0.018159055225273
     0.025680782179299    -0.017159433492128    -0.002357609282013
     0.018159055225561    -0.002357609282161    -0.015492351981391
   1  64
    -0.015279906263129    -0.000000000000246    -0.000000000000170
    -0.000000000000149    -0.015279906263497     0.000000000000217
    -0.000000000000120     0.000000000000159    -0.015279906263298
   1  65
     0.049777710007578     0.062488708370786     0.044186189437048
     0.062488708370847    -0.022378035194488     0.025510908365665
     0.044186189437100     0.025510908365603    -0.040416971493153
   1  66
     0.033542876954969    -0.000000000000342    -0.000000000000256
    -0.000000000000274     0.003921936002732     0.009538532857245
    -0.000000000000200     0.009538532857171    -0.002822825262693
   1  67
     0.049777710005996    -0.062488708372653    -0.044186189438234
    -0.062488708372324    -0.022378035192036     0.025510908366588
    -0.044186189438218     0.025510908366684    -0.040416971491351
   1  68
    -0.186507448695929    -0.000000000002308    -0.000000000001656
    -0.000000000002236    -0.380565129505813    -0.137219502042993
    -0.000000000001569    -0.137219502043012    -0.283536289102994
   1  69
     0.011327171241155     0.012826243673841     0.008260611768966
     0.012826243674075     0.026137641716408    -0.004769266428408
     0.008260611769020    -0.004769266428522    -0.002822825263140
   1  70
     0.011327171240847    -0.012826243674440    -0.008260611769348
    -0.012826243674062     0.026137641716857    -0.004769266428096
    -0.008260611769423    -0.004769266427942    -0.002822825262775
   1  71
    -0.000081490869328    -0.019427327797740    -0.006448876905071
    -0.034490241818730     0.057534738561349     0.002706992301012
    -0.017099965554459     0.021155218997722    -0.012016474162746
   1  72
    -0.000081490869165     0.019427327797543     0.006448876904884
     0.034490241819526     0.057534738560365     0.002706992300382
     0.017099965554457     0.021155218997012    -0.012016474162999
   1  73
    -0.058455907792131     0.000000000000319     0.000000000000566
     0.000000000001334     0.085855582605860    -0.051021816731064
     0.000000000000278    -0.051021816731631    -0.040416971494095
   1  74
     0.019783688704166    -0.045959408594017    -0.000880114352928
    -0.030896494571915     0.037669558988180    -0.006938387375015
     0.009770974295892    -0.025386614071091    -0.012016474163267
   1  75
     0.019209761833285    -0.000000000000260    -0.000000000000271
    -0.000000000000130     0.019209761832975     0.000000000000325
    -0.000000000000186     0.000000000000223     0.000772877153625
   1  76
     0.019783688704596     0.045959408593779     0.000880114352702
     0.030896494571794     0.037669558986336    -0.006938387375462
    -0.009770974296712    -0.025386614071926    -0.012016474162865
   1  77
    -0.332050709308175     0.084029440694279    -0.118835574662737
     0.084029440692875    -0.235021868899931     0.068609751019998
    -0.118835574658861     0.068609751018916    -0.283536289095741
   1  78
     0.066477673703188    -0.003937709764090     0.005568762551897
    -0.019000623786243    -0.009024426011082     0.004231395075446
     0.026870939849797     0.004231395075299    -0.012016474162911
   1  79
     0.066477673703207     0.003937709763009    -0.005568762552674
     0.019000623784071    -0.009024426011168     0.004231395075372
    -0.026870939851332     0.004231395075492    -0.012016474162791
   1  80
    -0.332050709308187    -0.084029440690063     0.118835574665691
    -0.084029440685678    -0.235021868893992     0.068609751016156
     0.118835574663970     0.068609751018568    -0.283536289101674
   1  81
     0.011327171241063     0.012063594022767     0.009339161249037
     0.012063594022637    -0.002602667272474     0.005391967261004
     0.009339161249469     0.005391967260854     0.025917483726120
   1  82
     0.011327171240893    -0.012063594023175    -0.009339161249497
    -0.012063594023055    -0.002602667271941     0.005391967261536
    -0.009339161249222     0.005391967261218     0.025917483726250
   1  83
    -0.000081490869620    -0.012555835386564    -0.016166634666613
    -0.027618749407976     0.003210607883112     0.040361699589115
    -0.026817723315642     0.021913472892774     0.042307656516252
   1  84
    -0.000081490869064     0.012555835386274     0.016166634666458
     0.027618749408200     0.003210607882180     0.040361699588553
     0.026817723316228     0.021913472892245     0.042307656515666
   1  85
    -0.009567586528629    -0.000000000000019    -0.000000000000026
     0.000000000000258     0.018292090497214    -0.010783934522026
     0.000000000000189    -0.010783934522396     0.025917483726017
   1  86
     0.006918505380216    -0.007096360222024    -0.005017884434816
    -0.007096360221715     0.015112676348814    -0.002897076928632
    -0.005017884434675    -0.002897076928840     0.017161219090985
   1  87
     0.014398643723956    -0.000000000000213    -0.000000000000143
    -0.000000000000056     0.016049008072461     0.001166983822748
    -0.000000000000029     0.001166983822649     0.015223825898190
   1  88
     0.006918505380356     0.007096360221552     0.005017884434434
     0.007096360221770     0.015112676348446    -0.002897076928940
     0.005017884434692    -0.002897076929117     0.017161219090880
   1  89
    -0.015008522314473    -0.019000623785323     0.026870939850730
    -0.003937709763345     0.018137639328253    -0.034181566109215
     0.005568762552383    -0.034181566109136     0.042307656514667
   1  90
     0.015636416985564    -0.000714628726050     0.001010637635956
    -0.000714628726010     0.014811234810845    -0.000583491910991
     0.001010637635950    -0.000583491911185     0.015223825898210
   1  91
     0.015636416985577     0.000714628725602    -0.001010637636248
     0.000714628725559     0.014811234810860    -0.000583491911051
    -0.001010637636230    -0.000583491911092     0.015223825898260
   1  92
    -0.015008522314475     0.019000623785326    -0.026870939850796
     0.003937709763450     0.018137639327704    -0.034181566108534
    -0.005568762552286    -0.034181566109398     0.042307656515264
   1  93
     0.019783688704717     0.016149582633506     0.043037574517189
     0.001086668611703    -0.016654571690878    -0.006180133480239
     0.032386485868073     0.012268093215910     0.042307656514899
   1  94
     0.019209761833316    -0.000000000000289    -0.000000000000179
    -0.000000000000227     0.002821419895646     0.005794153858262
    -0.000000000000041     0.005794153858017     0.017161219091076
   1  95
     0.019783688704221    -0.016149582633837    -0.043037574517420
    -0.001086668612539    -0.016654571690578    -0.006180133478885
    -0.032386485867917     0.012268093216944     0.042307656516102
   1  96
    -0.058455907793243     0.000000000000605    -0.000000000000045
     0.000000000000646    -0.058455907791804     0.000000000000116
     0.000000000001281    -0.000000000001275     0.103894518906320
   1  97
    -0.058455907793243     0.000000000000605    -0.000000000000045
     0.000000000000646    -0.058455907791804     0.000000000000116
     0.000000000001281    -0.000000000001275     0.103894518906320
   1  98
     0.019783688704221    -0.016149582633837    -0.043037574517420
    -0.001086668612539    -0.016654571690578    -0.006180133478885
    -0.032386485867917     0.012268093216944     0.042307656516102
   1  99
     0.019209761833316    -0.000000000000289    -0.000000000000179
    -0.000000000000227     0.002821419895646     0.005794153858262
    -0.000000000000041     0.005794153858017     0.017161219091076
   1 100
     0.019783688704717     0.016149582633506     0.043037574517189
     0.001086668611703    -0.016654571690878    -0.006180133480239
     0.032386485868073     0.012268093215910     0.042307656514899
   1 101
    -0.015008522314475     0.019000623785326    -0.026870939850796
     0.003937709763450     0.018137639327704    -0.034181566108534
    -0.005568762552286    -0.034181566109398     0.042307656515264
   1 102
     0.015636416985577     0.000714628725602    -0.001010637636248
     0.000714628725559     0.014811234810860    -0.000583491911051
    -0.001010637636230    -0.000583491911092     0.015223825898260
   1 103
     0.015636416985564    -0.000714628726050     0.001010637635956
    -0.000714628726010     0.014811234810845    -0.000583491910991
     0.001010637635950    -0.000583491911185     0.015223825898210
   1 104
    -0.015008522314473    -0.019000623785323     0.026870939850730
    -0.003937709763345     0.018137639328253    -0.034181566109215
     0.005568762552383    -0.034181566109136     0.042307656514667
   1 105
     0.006918505380356     0.007096360221552     0.005017884434434
     0.007096360221770     0.015112676348446    -0.002897076928940
     0.005017884434692    -0.002897076929117     0.017161219090880
   1 106
     0.014398643723956    -0.000000000000213    -0.000000000000143
    -0.000000000000056     0.016049008072461     0.001166983822748
    -0.000000000000029     0.001166983822649     0.015223825898190
   1 107
     0.006918505380216    -0.007096360222024    -0.005017884434816
    -0.007096360221715     0.015112676348814    -0.002897076928632
    -0.005017884434675    -0.002897076928840     0.017161219090985
   1 108
    -0.009567586528629    -0.000000000000019    -0.000000000000026
     0.000000000000258     0.018292090497214    -0.010783934522026
     0.000000000000189    -0.010783934522396     0.025917483726017
   1 109
    -0.000081490869064     0.012555835386274     0.016166634666458
     0.027618749408200     0.003210607882180     0.040361699588553
     0.026817723316228     0.021913472892245     0.042307656515666
   1 110
    -0.000081490869620    -0.012555835386564    -0.016166634666613
    -0.027618749407976     0.003210607883112     0.040361699589115
    -0.026817723315642     0.021913472892774     0.042307656516252
   1 111
     0.011327171240893    -0.012063594023175    -0.009339161249497
    -0.012063594023055    -0.002602667271941     0.005391967261536
    -0.009339161249222     0.005391967261218     0.025917483726250
   1 112
     0.011327171241063     0.012063594022767     0.009339161249037
     0.012063594022637    -0.002602667272474     0.005391967261004
     0.009339161249469     0.005391967260854     0.025917483726120
   1 113
    -0.332050709308187    -0.084029440690063     0.118835574665691
    -0.084029440685678    -0.235021868893992     0.068609751016156
     0.118835574663970     0.068609751018568    -0.283536289101674
   1 114
     0.066477673703207     0.003937709763009    -0.005568762552674
     0.019000623784071    -0.009024426011168     0.004231395075372
    -0.026870939851332     0.004231395075492    -0.012016474162791
   1 115
     0.066477673703188    -0.003937709764090     0.005568762551897
    -0.019000623786243    -0.009024426011082     0.004231395075446
     0.026870939849797     0.004231395075299    -0.012016474162911
   1 116
    -0.332050709308175     0.084029440694279    -0.118835574662737
     0.084029440692875    -0.235021868899931     0.068609751019998
    -0.118835574658861     0.068609751018916    -0.283536289095741
   1 117
     0.019783688704596     0.045959408593779     0.000880114352702
     0.030896494571794     0.037669558986336    -0.006938387375462
    -0.009770974296712    -0.025386614071926    -0.012016474162865
   1 118
     0.019209761833285    -0.000000000000260    -0.000000000000271
    -0.000000000000130     0.019209761832975     0.000000000000325
    -0.000000000000186     0.000000000000223     0.000772877153625
   1 119
     0.019783688704166    -0.045959408594017    -0.000880114352928
    -0.030896494571915     0.037669558988180    -0.006938387375015
     0.009770974295892    -0.025386614071091    -0.012016474163267
   1 120
    -0.058455907792131     0.000000000000319     0.000000000000566
     0.000000000001334     0.085855582605860    -0.051021816731064
     0.000000000000278    -0.051021816731631    -0.040416971494095
   1 121
    -0.000081490869165     0.019427327797543     0.006448876904884
     0.034490241819526     0.057534738560365     0.002706992300382
     0.017099965554457     0.021155218997012    -0.012016474162999
   1 122
    -0.000081490869328    -0.019427327797740    -0.006448876905071
    -0.034490241818730     0.057534738561349     0.002706992301012
    -0.017099965554459     0.021155218997722    -0.012016474162746
   1 123
     0.011327171240847    -0.012826243674440    -0.008260611769348
    -0.012826243674062     0.026137641716857    -0.004769266428096
    -0.008260611769423    -0.004769266427942    -0.002822825262775
   1 124
     0.011327171241155     0.012826243673841     0.008260611768966
     0.012826243674075     0.026137641716408    -0.004769266428408
     0.008260611769020    -0.004769266428522    -0.002822825263140
   1 125
    -0.186507448695929    -0.000000000002308    -0.000000000001656
    -0.000000000002236    -0.380565129505813    -0.137219502042993
    -0.000000000001569    -0.137219502043012    -0.283536289102994
   1 126
     0.049777710005996    -0.062488708372653    -0.044186189438234
    -0.062488708372324    -0.022378035192036     0.025510908366588
    -0.044186189438218     0.025510908366684    -0.040416971491351
   1 127
     0.033542876954969    -0.000000000000342    -0.000000000000256
    -0.000000000000274     0.003921936002732     0.009538532857245
    -0.000000000000200     0.009538532857171    -0.002822825262693
   1 128
     0.049777710007578     0.062488708370786     0.044186189437048
     0.062488708370847    -0.022378035194488     0.025510908365665
     0.044186189437100     0.025510908365603    -0.040416971493153
   2   1
    -0.252640192712207     0.000000000002252     0.000000000001592
     0.000000000002175     0.113275632250678    -0.055189947441186
     0.000000000001530    -0.055189947441097     0.152300818338611
   2   2
     1.850807437070534    -0.000000000000106    -0.000000000000090
    -0.000000000000106     1.850807437070052     0.000000000000252
    -0.000000000000090     0.000000000000252     1.850807437070083
   2   3
    -0.252640192711941     0.000000000002253     0.000000000001562
     0.000000000002242     0.113275632250907    -0.055189947441056
     0.000000000001595    -0.055189947441094     0.152300818338741
   2   4
    -0.048356259803044     0.000000000000233     0.000000000000150
     0.000000000000233     0.006700338886515    -0.010977667655368
     0.000000000000150    -0.010977667655368     0.014462722127197
   2   5
     0.021796676010560     0.158446200031106     0.047795896517355
     0.158446200030342    -0.161161236475469     0.027594973717649
     0.047795896519741     0.027594973716607     0.152300818340009
   2   6
     0.021796676009980    -0.158446200031066    -0.047795896519604
    -0.158446200033536    -0.161161236467495     0.027594973721453
    -0.047795896518178     0.027594973721652     0.152300818340729
   2   7
    -0.035653352683606    -0.012602449141945    -0.002281277561843
    -0.012602449141971    -0.021101297874594    -0.001317096214374
    -0.002281277561798    -0.001317096214393     0.021928593852291
   2   8
    -0.035653352684026     0.012602449142220     0.002281277562096
     0.012602449142020    -0.021101297874597    -0.001317096214483
     0.002281277562411    -0.001317096215013     0.021928593852187
   2   9
    -0.013825270469620     0.000000000000258     0.000000000000079
    -0.000000000000041    -0.042929380088001     0.002634192428696
     0.000000000000383     0.002634192428671     0.021928593852462
   2  10
    -0.007063810786223    -0.023840206555969    -0.009506939064294
    -0.023840206555689    -0.034592110129799     0.005488833827849
    -0.009506939064249     0.005488833827440     0.014462722127716
   2  11
    -0.013825270470109    -0.000000000000019    -0.000000000000054
    -0.000000000000257    -0.042929380087484     0.002634192428797
     0.000000000000074     0.002634192428055     0.021928593852385
   2  12
    -0.007063810785812     0.023840206555960     0.009506939064250
     0.023840206555301    -0.034592110130819     0.005488833827337
     0.009506939064628     0.005488833826736     0.014462722127393
   2  13
    -0.035653352683207    -0.012602449141422    -0.002281277561760
    -0.012602449141373    -0.021101297874336    -0.001317096214425
    -0.002281277561406    -0.001317096214379     0.021928593852391
   2  14
     0.021796676008465    -0.158446200034116    -0.047795896518908
    -0.158446200032046    -0.161161236466211     0.027594973721965
    -0.047795896519571     0.027594973718772     0.152300818340488
   2  15
     0.021796676012732     0.158446200030667     0.047795896519086
     0.158446200030641    -0.161161236474384     0.027594973718073