128  
2    

1    
  0.0300000000000000  -0.0000000000000029  -0.0000000000000020
  -0.0555240705    0.0000000059    0.0000000042
   0.0076997059    0.0000000016    0.0000000011
   0.0014511249   -0.0000000001   -0.0000000000
   0.0074594451    0.0000000015    0.0000000011
  -0.0006614904    0.0047866058    0.0014348623
   0.0010678706    0.0003815600    0.0000712358
   0.0010716283   -0.0003742185   -0.0000657049
  -0.0006462931   -0.0047200819   -0.0014331847
   0.0002120239    0.0007150697    0.0002851645
   0.0004147857    0.0000108078   -0.0000009752
   0.0002120212   -0.0007150654   -0.0002851645
   0.0004147857   -0.0000108054    0.0000009754
  -0.0006462903    0.0047200879    0.0014331861
  -0.0006614931   -0.0047865997   -0.0014348609
   0.0010678703   -0.0003815589   -0.0000712360
   0.0010716286    0.0003742196    0.0000657048
  -0.0006614904    0.0029483364    0.0040345678
   0.0010678706    0.0001943484    0.0003359929
   0.0010716283   -0.0001866867   -0.0003309150
  -0.0006462931   -0.0029245802   -0.0039724076
   0.0000606736    0.0007720324    0.0005459094
   0.0004585498    0.0000043512    0.0000030768
   0.0000702956   -0.0007690229   -0.0005437813
  -0.0001351819    0.0000129603    0.0000091643
  -0.0002584363    0.0005803848    0.0002096083
  -0.0002708538   -0.0005795542   -0.0002124938
   0.0003188053   -0.0003359811    0.0001549766
   0.0003250466    0.0003195709   -0.0001646411
  -0.0057392684    0.0000015051   -0.0000021256
   0.0022041722   -0.0013574096    0.0019196673
   0.0008895720    0.0000093480   -0.0000132199
   0.0022297861    0.0013569431   -0.0019190070
   0.0002120239    0.0005072123    0.0005791194
   0.0004147857    0.0000026832    0.0000105148
   0.0002120212   -0.0005072108   -0.0005791153
   0.0004147857   -0.0000026822   -0.0000105125
  -0.0002584363    0.0003910822    0.0004773227
  -0.0002708538   -0.0003935258   -0.0004755776
   0.0003188053    0.0000341197   -0.0003684249
   0.0003250466   -0.0000487015    0.0003561747
  -0.0006667075   -0.0000000000   -0.0000000000
   0.0003932909    0.0000000001    0.0000000001
   0.0012937601    0.0000000000    0.0000000000
   0.0003933074    0.0000000001    0.0000000001
  -0.0002708530    0.0003935261    0.0004755785
   0.0003188055   -0.0000341193    0.0003684253
   0.0003250464    0.0000487018   -0.0003561744
  -0.0002584371   -0.0003910819   -0.0004773218
  -0.0006462903    0.0029245834    0.0039724129
  -0.0006614931   -0.0029483331   -0.0040345625
   0.0010678703   -0.0001943482   -0.0003359918
   0.0010716286    0.0001866869    0.0003309160
  -0.0057392684   -0.0000015023    0.0000021275
   0.0022041722    0.0013574098   -0.0019196671
   0.0008895720   -0.0000093478    0.0000132200
   0.0022297861   -0.0013569428    0.0019190072
  -0.0002708530    0.0005795551    0.0002124938
   0.0003188055    0.0003359815   -0.0001549764
   0.0003250464   -0.0003195705    0.0001646413
  -0.0002584371   -0.0005803839   -0.0002096083
   0.0000702968    0.0007690244    0.0005437824
  -0.0001351818   -0.0000129592   -0.0000091635
   0.0000606723   -0.0007720309   -0.0005459083
   0.0004585498   -0.0000043518   -0.0000030772
  -0.0015038347   -0.0018917839   -0.0013376933
  -0.0010057261   -0.0000087352   -0.0000061767
  -0.0014865267    0.0018633249    0.0013175696
   0.0056006513   -0.0000668221   -0.0000472504
  -0.0003452543   -0.0003852095   -0.0002541273
  -0.0003344169    0.0003843703    0.0002415739
   0.0000007594    0.0005897580    0.0001979205
   0.0000041660   -0.0005757883   -0.0001890351
   0.0017539527   -0.0000216793    0.0000109040
  -0.0005927667    0.0013877727    0.0000297405
  -0.0005766658   -0.0000004121   -0.0000101469
  -0.0005939029   -0.0013691933   -0.0000235579
   0.0105614468   -0.0028816298    0.0040752334
  -0.0020025591    0.0001187501   -0.0001679381
  -0.0019866982   -0.0001178371    0.0001666467
   0.0093531104    0.0021592657   -0.0030536693
  -0.0003452543   -0.0003679966   -0.0002784699
  -0.0003344169    0.0003558815    0.0002818632
   0.0000007594    0.0003831872    0.0004900557
   0.0000041660   -0.0003701534   -0.0004798467
   0.0002869882    0.0000021973    0.0000015537
  -0.0002067780    0.0002092048    0.0001479301
  -0.0004322017    0.0000095836    0.0000067766
  -0.0002080965   -0.0002160817   -0.0001527929
   0.0004550529    0.0005751872   -0.0008134376
  -0.0004596531    0.0000218868   -0.0000309527
  -0.0004774875   -0.0000209514    0.0000296297
   0.0004458708   -0.0005644462    0.0007982474
  -0.0005927687   -0.0004906311   -0.0012984938
  -0.0005766658    0.0000097032   -0.0000029942
  -0.0005939009    0.0004786078    0.0012830326
   0.0017539527   -0.0000030553    0.0000240707
   0.0017539527    0.0000030539   -0.0000240741
  -0.0005927667    0.0004906305    0.0012984912
  -0.0005766658   -0.0000097040    0.0000029938
  -0.0005939029   -0.0004786084   -0.0012830352
   0.0004550529   -0.0005751873    0.0008134376
  -0.0004596531   -0.0000218869    0.0000309527
  -0.0004774875    0.0000209514   -0.0000296298
   0.0004458708    0.0005644462   -0.0007982475
  -0.0002067779   -0.0002092054   -0.0001479305
  -0.0004322017   -0.0000095829   -0.0000067761
  -0.0002080967    0.0002160812    0.0001527924
   0.0002869882   -0.0000021970   -0.0000015535
   0.0000007574   -0.0003831882   -0.0004900585
   0.0000041680    0.0003701525    0.0004798439
  -0.0003452535    0.0003679960    0.0002784683
  -0.0003344177   -0.0003558821   -0.0002818647
   0.0105614468    0.0028816236   -0.0040752378
  -0.0020025591   -0.0001187502    0.0001679380
  -0.0019866982    0.0001178370   -0.0001666468
   0.0093531104   -0.0021592718    0.0030536650
  -0.0005927687   -0.0013877754   -0.0000297402
  -0.0005766658    0.0000004115    0.0000101463
  -0.0005939009    0.0013691907    0.0000235582
   0.0017539527    0.0000216756   -0.0000109041
   0.0000007574   -0.0005897610   -0.0001979205
   0.0000041680    0.0005757853    0.0001890351
  -0.0003452535    0.0003852078    0.0002541272
  -0.0003344177   -0.0003843720   -0.0002415740
   0.0056006512    0.0000668144    0.0000472449
  -0.0015038326    0.0018917813    0.0013376914
  -0.0010057261    0.0000087356    0.0000061770
  -0.0014865286   -0.0018633274   -0.0013175714

65   
  0.0300000000000000  -0.0000000000000029  -0.0000000000000020
  -0.0014979291   -0.0018655936   -0.0013191739
   0.0055987190   -0.0000155628   -0.0000110046
  -0.0014834857    0.0018797313    0.0013291707
  -0.0010065674    0.0000032528    0.0000023001
   0.0093233264   -0.0021112647    0.0029857727
   0.0105992782    0.0029365246   -0.0041528794
  -0.0019911951   -0.0005852555    0.0008276761
  -0.0019980525    0.0005554430   -0.0007855151
   0.0017526273    0.0000314497    0.0000063295
  -0.0005919217   -0.0009203369    0.0003013021
  -0.0005763327    0.0000017610   -0.0000117180
  -0.0005951198    0.0009331029   -0.0002853688
  -0.0003410799   -0.0003797240   -0.0002466217
   0.0000037007   -0.0010381063   -0.0005143916
   0.0000012475    0.0010312289    0.0005112337
  -0.0003386172    0.0003901055    0.0002490024
   0.0093233264    0.0021112586   -0.0029857770
   0.0105992782   -0.0029365308    0.0041528750
  -0.0019911951    0.0005852554   -0.0008276762
  -0.0019980525   -0.0005554431    0.0007855151
   0.0055987190    0.0000155551    0.0000109991
  -0.0014834877   -0.0018797339   -0.0013291726
  -0.0010065674   -0.0000032524   -0.0000022998
  -0.0014979272    0.0018655911    0.0013191721
   0.0000012455   -0.0010312319   -0.0005112337
  -0.0003386181   -0.0003901072   -0.0002490025
  -0.0003410791    0.0003797223    0.0002466216
   0.0000037028    0.0010381032    0.0005143916
  -0.0005951217   -0.0009331055    0.0002853691
   0.0017526272   -0.0000314533   -0.0000063297
  -0.0005919197    0.0009203342   -0.0003013018
  -0.0005763327   -0.0000017616    0.0000117174
   0.0017526273    0.0000164508    0.0000275412
  -0.0005919217   -0.0000227086   -0.0009681360
  -0.0005763327   -0.0000104608    0.0000055662
  -0.0005951198    0.0000419860    0.0009748608
   0.0000012455   -0.0008257397   -0.0008018435
  -0.0003386181   -0.0003647975   -0.0002847957
  -0.0003410791    0.0003590912    0.0002757985
   0.0000037028    0.0008310074    0.0008072692
  -0.0001975726   -0.0002154755   -0.0001523642
   0.0002870035   -0.0000012693   -0.0000008975
  -0.0002169479    0.0002098479    0.0001483849
  -0.0004320492    0.0000036302    0.0000025669
   0.0004482254   -0.0001242229    0.0001756777
   0.0004522050    0.0001120554   -0.0001584703
  -0.0004652087    0.0000175018   -0.0000247514
  -0.0004736884   -0.0000256072    0.0000362140
  -0.0003410799   -0.0003590918   -0.0002758000
   0.0000037007   -0.0008310084   -0.0008072721
   0.0000012475    0.0008257388    0.0008018407
  -0.0003386172    0.0003647969    0.0002847942
  -0.0005951217   -0.0000419866   -0.0009748634
   0.0017526272   -0.0000164521   -0.0000275446
  -0.0005919197    0.0000227080    0.0009681334
  -0.0005763327    0.0000104600   -0.0000055666
   0.0004482254    0.0001242229   -0.0001756778
   0.0004522050   -0.0001120554    0.0001584702
  -0.0004652088   -0.0000175019    0.0000247514
  -0.0004736884    0.0000256071   -0.0000362140
   0.0002870035    0.0000012696    0.0000008978
  -0.0002169477   -0.0002098485   -0.0001483853
  -0.0004320492   -0.0000036295   -0.0000025665
  -0.0001975728    0.0002154749    0.0001523637
  -0.0713344493    0.0000000059    0.0000000042
   0.0113793192    0.0000000016    0.0000000011
   0.0027110967   -0.0000000001   -0.0000000000
   0.0108806555    0.0000000015    0.0000000011
   0.0004955424    0.0061519920   -0.0000910825
   0.0011693991    0.0006931520    0.0001040487
   0.0011810776   -0.0006692467   -0.0000885631
   0.0005193848   -0.0061080600    0.0000685041
   0.0005063608    0.0012730818    0.0001525324
  -0.0000044453    0.0000130253    0.0000057720
   0.0005063581   -0.0012730774   -0.0001525324
  -0.0000044454   -0.0000130229   -0.0000057718
   0.0005193876    0.0061080661   -0.0000685028
   0.0004955397   -0.0061519859    0.0000910839
   0.0011693987   -0.0006931509   -0.0001040488
   0.0011810779    0.0006692478    0.0000885630
   0.0004955424    0.0019647906    0.0058305145
   0.0011693991    0.0003291487    0.0006188271
   0.0011810776   -0.0003065804   -0.0006014508
   0.0005193848   -0.0019714337   -0.0057815689
   0.0005350437    0.0006914249    0.0004889113
   0.0002951690    0.0000094685    0.0000066952
   0.0005333325   -0.0006842232   -0.0004838189
  -0.0005190530    0.0000151953    0.0000107447
  -0.0000056031    0.0003787753   -0.0001242257
  -0.0000263894   -0.0003607342    0.0001232386
   0.0002646910   -0.0002134058    0.0001693888
   0.0002704634    0.0001997433   -0.0001766795
  -0.0029002786    0.0000277925   -0.0000393016
   0.0004967022   -0.0005876797    0.0008311048
   0.0006261204   -0.0000048799    0.0000069014
   0.0004635759    0.0005644063   -0.0007981907
   0.0005063608    0.0005681696    0.0011494289
  -0.0000044453    0.0000097836    0.0000103564
   0.0005063581   -0.0005681681   -0.0011494248
  -0.0000044454   -0.0000097827   -0.0000103541
  -0.0000056031    0.0000091373    0.0003985214
  -0.0000263894   -0.0000040543   -0.0003811830
   0.0002646910    0.0000885660   -0.0002576638
   0.0002704634   -0.0000999939    0.0002472129
  -0.0004772750   -0.0000000000   -0.0000000000
   0.0004219492    0.0000000001    0.0000000001
  -0.0017132089    0.0000000000    0.0000000000
   0.0004386308    0.0000000001    0.0000000001
  -0.0000263886    0.0000040545    0.0003811838
   0.0002646912   -0.0000885656    0.0002576642
   0.0002704633    0.0000999943   -0.0002472126
  -0.0000056039   -0.0000091371   -0.0003985205
   0.0005193876    0.0019714370    0.0057815742
   0.0004955397   -0.0019647872   -0.0058305092
   0.0011693987   -0.0003291484   -0.0006188260
   0.0011810779    0.0003065806    0.0006014519
  -0.0029002786   -0.0000277898    0.0000393036
   0.0004967022    0.0005876799   -0.0008311047
   0.0006261204    0.0000048801   -0.0000069012
   0.0004635759   -0.0005644060    0.0007981909
  -0.0000263886    0.0003607351   -0.0001232386
   0.0002646912    0.0002134062   -0.0001693886
   0.0002704633   -0.0001997428    0.0001766797
  -0.0000056039   -0.0003787744    0.0001242257
   0.0005333337    0.0006842247    0.0004838199
  -0.0005190529   -0.0000151942   -0.0000107439
   0.0005350424   -0.0006914234   -0.0004889102
   0.0002951690   -0.0000094690   -0.0000066956