 128  128
   1   1
     1.921438582135362    -0.000000000000159    -0.000000000000102
    -0.000000000000159     1.921438582134976     0.000000000000204
    -0.000000000000102     0.000000000000204     1.921438582135099
   1   2
    -0.256130886338758     0.000000000002189     0.000000000001536
     0.000000000002269     0.117812288279750    -0.062938118452374
     0.000000000001611    -0.062938118452463     0.162316258631390
   1   3
    -0.045283310326961     0.000000000000076     0.000000000000035
     0.000000000000162     0.000573388200187    -0.015683626520288
     0.000000000000143    -0.015683626520418     0.011663386866189
   1   4
    -0.256130886338758     0.000000000002189     0.000000000001536
     0.000000000002269     0.117812288279750    -0.062938118452374
     0.000000000001611    -0.062938118452463     0.162316258631390
   1   5
     0.024326494624019    -0.161922144394042    -0.054506009447412
    -0.161922144396444    -0.162645092680448     0.031469059226631
    -0.054506009447039     0.031469059227368     0.162316258634917
   1   6
    -0.037445694113404    -0.023935277799186     0.004413392365208
    -0.023935277798715    -0.009807615951622     0.002548073270200
     0.004413392365883     0.002548073270369     0.017655846471422
   1   7
    -0.037445694113051     0.023935277799578    -0.004413392364976
     0.023935277799632    -0.009807615952679     0.002548073270108
    -0.004413392364864     0.002548073269992     0.017655846471520
   1   8
     0.024326494626498     0.161922144397072     0.054506009447699
     0.161922144392594    -0.162645092685802     0.031469059224538
     0.054506009449706     0.031469059220876     0.162316258632028
   1   9
    -0.010890786431439    -0.019856532928885    -0.013582418990230
    -0.019856532929101    -0.033819135694878     0.007841813260490
    -0.013582418990183     0.007841813260509     0.011663386866716
   1  10
     0.004011423128508    -0.000000000000131    -0.000000000000124
    -0.000000000000509    -0.051264733193555    -0.005096146540286
     0.000000000000027    -0.005096146541252     0.017655846471398
   1  11
    -0.010890786431551     0.019856532929291     0.013582418990409
     0.019856532928860    -0.033819135695297     0.007841813259794
     0.013582418990682     0.007841813259285     0.011663386866360
   1  12
     0.004011423128508    -0.000000000000131    -0.000000000000124
    -0.000000000000509    -0.051264733193555    -0.005096146540286
     0.000000000000027    -0.005096146541252     0.017655846471398
   1  13
     0.024326494624019    -0.161922144394042    -0.054506009447412
    -0.161922144396444    -0.162645092680448     0.031469059226631
    -0.054506009447039     0.031469059227368     0.162316258634917
   1  14
     0.024326494626498     0.161922144397072     0.054506009447699
     0.161922144392594    -0.162645092685802     0.031469059224538
     0.054506009449706     0.031469059220876     0.162316258632028
   1  15
    -0.037445694113051     0.023935277799578    -0.004413392364976
     0.023935277799632    -0.009807615952679     0.002548073270108
    -0.004413392364864     0.002548073269992     0.017655846471520
   1  16
    -0.037445694113404    -0.023935277799186     0.004413392365208
    -0.023935277798715    -0.009807615951622     0.002548073270200
     0.004413392365883     0.002548073270369     0.017655846471422
   1  17
     0.024326494624931    -0.105362806658667    -0.134492991952475
    -0.105362806657413     0.145988984200499    -0.077649565103288
    -0.134492991956893    -0.077649565104014    -0.146317818250326
   1  18
    -0.037445694113338    -0.003817439706840    -0.024037527110360
    -0.003817439706152     0.016205914991790    -0.006649098795529
    -0.024037527110337    -0.006649098795968    -0.008357684472267
   1  19
    -0.037445694113001     0.003817439707187     0.024037527110572
     0.003817439707335     0.016205914991611    -0.006649098796239
     0.024037527110852    -0.006649098796373    -0.008357684473038
   1  20
     0.024326494626526     0.105362806658902     0.134492991955047
     0.105362806658674     0.145988984195538    -0.077649565109870
     0.134492991951890    -0.077649565106913    -0.146317818252705
   1  21
    -0.000512987048279    -0.025140548072752    -0.017777052025196
    -0.025140548073254    -0.020726792072657    -0.017492559723183
    -0.017777052025714    -0.017492559723407    -0.008357684472416
   1  22
    -0.004539854531371    -0.000000000000252    -0.000000000000172
    -0.000000000000151    -0.004539854531751     0.000000000000222
    -0.000000000000120     0.000000000000168    -0.004539854531545
   1  23
    -0.000512987047643     0.025140548072577     0.017777052025054
     0.025140548072667    -0.020726792073840    -0.017492559723823
     0.017777052025328    -0.017492559724095    -0.008357684473055
   1  24
     0.003537603329884    -0.000000000000291    -0.000000000000193
    -0.000000000001273    -0.106060303503445    -0.077497423126390
    -0.000000000000861    -0.077497423126525    -0.051261350087852
   1  25
     0.006099012479120    -0.021323108366468     0.006260475085160
    -0.021323108365866    -0.027338791600166     0.024141658519685
     0.006260475085087     0.024141658520103    -0.008357684472139
   1  26
     0.006099012479455     0.021323108366075    -0.006260475085464
     0.021323108365395    -0.027338791601095     0.024141658519671
    -0.006260475085077     0.024141658519797    -0.008357684471963
   1  27
    -0.008241656048221     0.006015427528467    -0.004974829054562
     0.006015427528276    -0.015187673453651    -0.002872218893750
    -0.004974829054370    -0.002872218894017    -0.008830578258801
   1  28
    -0.008241656047816    -0.006015427528350     0.004974829054432
    -0.006015427528383    -0.015187673453618    -0.002872218893705
     0.004974829054523    -0.002872218893698    -0.008830578259175
   1  29
     0.206820228986608    -0.000000000001840    -0.000000000001298
    -0.000000000003316    -0.036504750161719     0.155299130213556
    -0.000000000002316     0.155299130217981    -0.146317818248836
   1  30
    -0.078660826795245     0.047457285760552    -0.067114737154429
     0.047457285760566    -0.023861873379780     0.038748711563605
    -0.067114737154372     0.038748711563505    -0.051261350085886
   1  31
    -0.018660682156414    -0.000000000000056    -0.000000000000069
     0.000000000000055    -0.004768647345433     0.005744437787684
     0.000000000000048     0.005744437787638    -0.008830578258808
   1  32
    -0.078660826795370    -0.047457285759638     0.067114737155226
    -0.047457285758195    -0.023861873377626     0.038748711561925
     0.067114737155963     0.038748711563497    -0.051261350087953
   1  33
    -0.010890786431508    -0.019424471740102    -0.014193445783218
    -0.019424471739739     0.011538661544971    -0.008194589743056
    -0.014193445783702    -0.008194589743065    -0.033694410373603
   1  34
     0.004011423128597    -0.000000000000147    -0.000000000000143
    -0.000000000000230     0.006794875596078    -0.025623318084471
    -0.000000000000470    -0.025623318084049    -0.040403762318895
   1  35
    -0.010890786431525     0.019424471740313     0.014193445783620
     0.019424471740290     0.011538661544002    -0.008194589743919
     0.014193445783291    -0.008194589743619    -0.033694410373414
   1  36
     0.004011423128597    -0.000000000000147    -0.000000000000143
    -0.000000000000230     0.006794875596078    -0.025623318084471
    -0.000000000000470    -0.025623318084049    -0.040403762318895
   1  37
     0.006099012479113    -0.001205270273724    -0.022190444390932
    -0.001205270273695     0.004707286245096     0.012811659042849
    -0.022190444390545     0.012811659042665    -0.040403762317937
   1  38
     0.006099012479488     0.001205270273279     0.022190444390644
     0.001205270273545     0.004707286245039     0.012811659042243
     0.022190444390117     0.012811659042357    -0.040403762318613
   1  39
    -0.008241656048162    -0.002685171303512     0.007329675814256
    -0.002685171303396    -0.011342224797703    -0.004231790304504
     0.007329675814133    -0.004231790304471    -0.012676026914887
   1  40
    -0.008241656047899     0.002685171303583    -0.007329675814159
     0.002685171303489    -0.011342224797718    -0.004231790304198
    -0.007329675814195    -0.004231790304485    -0.012676026915035
   1  41
     0.022753385532820    -0.000000000000205    -0.000000000000135
    -0.000000000000451    -0.022105510419367     0.016389179487077
    -0.000000000000315     0.016389179487477    -0.033694410373439
   1  42
    -0.012892509172592     0.000000000000076     0.000000000000057
     0.000000000000216    -0.006691371673102     0.008463580608729
     0.000000000000168     0.008463580608864    -0.012676026914913
   1  43
    -0.078843834531121    -0.000000000000135    -0.000000000000147
    -0.000000000000125    -0.078843834531343     0.000000000000152
    -0.000000000000065     0.000000000000096    -0.078843834531226
   1  44
    -0.012892509172592     0.000000000000076     0.000000000000057
     0.000000000000216    -0.006691371673102     0.008463580608729
     0.000000000000168     0.008463580608864    -0.012676026914913
   1  45
     0.006099012479113    -0.001205270273724    -0.022190444390932
    -0.001205270273695     0.004707286245096     0.012811659042849
    -0.022190444390545     0.012811659042665    -0.040403762317937
   1  46
    -0.008241656047899     0.002685171303583    -0.007329675814159
     0.002685171303489    -0.011342224797718    -0.004231790304198
    -0.007329675814195    -0.004231790304485    -0.012676026915035
   1  47
    -0.008241656048162    -0.002685171303512     0.007329675814256
    -0.002685171303396    -0.011342224797703    -0.004231790304504
     0.007329675814133    -0.004231790304471    -0.012676026914887
   1  48
     0.006099012479488     0.001205270273279     0.022190444390644
     0.001205270273545     0.004707286245039     0.012811659042243
     0.022190444390117     0.012811659042357    -0.040403762318613
   1  49
     0.024326494624931    -0.105362806658667    -0.134492991952475
    -0.105362806657413     0.145988984200499    -0.077649565103288
    -0.134492991956893    -0.077649565104014    -0.146317818250326
   1  50
     0.024326494626526     0.105362806658902     0.134492991955047
     0.105362806658674     0.145988984195538    -0.077649565109870
     0.134492991951890    -0.077649565106913    -0.146317818252705
   1  51
    -0.037445694113001     0.003817439707187     0.024037527110572
     0.003817439707335     0.016205914991611    -0.006649098796239
     0.024037527110852    -0.006649098796373    -0.008357684473038
   1  52
    -0.037445694113338    -0.003817439706840    -0.024037527110360
    -0.003817439706152     0.016205914991790    -0.006649098795529
    -0.024037527110337    -0.006649098795968    -0.008357684472267
   1  53
     0.206820228986608    -0.000000000001840    -0.000000000001298
    -0.000000000003316    -0.036504750161719     0.155299130213556
    -0.000000000002316     0.155299130217981    -0.146317818248836
   1  54
    -0.078660826795370    -0.047457285759638     0.067114737155226
    -0.047457285758195    -0.023861873377626     0.038748711561925
     0.067114737155963     0.038748711563497    -0.051261350087953
   1  55
    -0.018660682156414    -0.000000000000056    -0.000000000000069
     0.000000000000055    -0.004768647345433     0.005744437787684
     0.000000000000048     0.005744437787638    -0.008830578258808
   1  56
    -0.078660826795245     0.047457285760552    -0.067114737154429
     0.047457285760566    -0.023861873379780     0.038748711563605
    -0.067114737154372     0.038748711563505    -0.051261350085886
   1  57
     0.006099012479120    -0.021323108366468     0.006260475085160
    -0.021323108365866    -0.027338791600166     0.024141658519685
     0.006260475085087     0.024141658520103    -0.008357684472139
   1  58
    -0.008241656047816    -0.006015427528350     0.004974829054432
    -0.006015427528383    -0.015187673453618    -0.002872218893705
     0.004974829054523    -0.002872218893698    -0.008830578259175
   1  59
    -0.008241656048221     0.006015427528467    -0.004974829054562
     0.006015427528276    -0.015187673453651    -0.002872218893750
    -0.004974829054370    -0.002872218894017    -0.008830578258801
   1  60
     0.006099012479455     0.021323108366075    -0.006260475085464
     0.021323108365395    -0.027338791601095     0.024141658519671
    -0.006260475085077     0.024141658519797    -0.008357684471963
   1  61
    -0.000512987048279    -0.025140548072752    -0.017777052025196
    -0.025140548073254    -0.020726792072657    -0.017492559723183
    -0.017777052025714    -0.017492559723407    -0.008357684472416
   1  62
     0.003537603329884    -0.000000000000291    -0.000000000000193
    -0.000000000001273    -0.106060303503445    -0.077497423126390
    -0.000000000000861    -0.077497423126525    -0.051261350087852
   1  63
    -0.000512987047643     0.025140548072577     0.017777052025054
     0.025140548072667    -0.020726792073840    -0.017492559723823
     0.017777052025328    -0.017492559724095    -0.008357684473055
   1  64
    -0.004539854531371    -0.000000000000252    -0.000000000000172
    -0.000000000000151    -0.004539854531751     0.000000000000222
    -0.000000000000120     0.000000000000168    -0.004539854531545
   1  65
     0.063368990206293     0.067730423776961     0.047892641945844
     0.067730423777016    -0.014839366597608     0.027650829719317
     0.047892641945896     0.027650829719255    -0.034391455796577
   1  66
     0.027177727608292    -0.000000000000409    -0.000000000000306
    -0.000000000000354    -0.007028895811644     0.002659733317362
    -0.000000000000248     0.002659733317281    -0.008909611276123
   1  67
     0.063368990204683    -0.067730423779015    -0.047892641947174
    -0.067730423778663    -0.014839366594976     0.027650829720405
    -0.047892641947158     0.027650829720517    -0.034391455794704
   1  68
    -0.229350146058778    -0.000000000001906    -0.000000000001372
    -0.000000000001823    -0.384813401370675    -0.109929122057068
    -0.000000000001277    -0.109929122057083    -0.307081773716442
   1  69
     0.001522760043739     0.014811902429327     0.002303396620006
     0.014811902429607     0.018626071752728    -0.001329866658395
     0.002303396620062    -0.001329866658561    -0.008909611276421
   1  70
     0.001522760043250    -0.014811902429807    -0.002303396620186
    -0.014811902429281     0.018626071753377    -0.001329866658358
    -0.002303396620316    -0.001329866658125    -0.008909611276136
   1  71
    -0.006168574264368    -0.017023350218781    -0.005194003256160
    -0.035299907469687     0.068030405736004     0.013184215727914
    -0.018117480825763     0.035568335489411    -0.008794804700220
   1  72
    -0.006168574264261     0.017023350218660     0.005194003256040
     0.035299907470928     0.068030405735080     0.013184215727301
     0.018117480826128     0.035568335488722    -0.008794804700458
   1  73
    -0.053943544995968     0.000000000000261     0.000000000000528
     0.000000000001354     0.102473168605251    -0.055301659438369
     0.000000000000220    -0.055301659438966    -0.034391455797504
   1  74
     0.026824025552006    -0.054348193856324     0.008820864120282
    -0.036071636604093     0.035037805920290    -0.011090246630117
     0.021744341689420    -0.033474366390767    -0.008794804701154
   1  75
     0.015786788747657    -0.000000000000271    -0.000000000000285
    -0.000000000000134     0.015786788747335     0.000000000000338
    -0.000000000000184     0.000000000000231    -0.002393986557942
   1  76
     0.026824025552496     0.054348193856048    -0.008820864120622
     0.036071636603674     0.035037805918089    -0.011090246630313
    -0.021744341690386    -0.033474366391571    -0.008794804700428
   1  77
    -0.345947587547540     0.067317564231023    -0.095201412315820
     0.067317564229910    -0.268215959887762     0.054964561026665
    -0.095201412312701     0.054964561025798    -0.307081773709879
   1  78
     0.072137295920053    -0.009910007760137     0.014014867376250
    -0.028186565012466    -0.010275464447989    -0.002093969096563
     0.039861822514722    -0.002093969096675    -0.008794804700799
   1  79
     0.072137295920073     0.009910007758965    -0.014014867377096
     0.028186565009947    -0.010275464448377    -0.002093969096434
    -0.039861822516493    -0.002093969096467    -0.008794804700379
   1  80
    -0.345947587547556    -0.067317564226683     0.095201412318858
    -0.067317564223159    -0.268215959882247     0.054964561023338
     0.095201412317500     0.054964561025233    -0.307081773715385
   1  81
     0.001522760043587     0.007108963969445     0.013196996660184
     0.007108963969495    -0.006685964479675     0.007619289573978
     0.013196996660651     0.007619289574009     0.016402424956387
   1  82
     0.001522760043287    -0.007108963969638    -0.013196996660555
    -0.007108963969583    -0.006685964479393     0.007619289574576
    -0.013196996660132     0.007619289574240     0.016402424956826
   1  83
    -0.006168574264712    -0.010571403304614    -0.014318434085636
    -0.028847960556026     0.015062778487744     0.054295219693569
    -0.027241911654949     0.031911099932811     0.044172822548837
   1  84
    -0.006168574264158     0.010571403304479     0.014318434085587
     0.028847960556725     0.015062778486860     0.054295219693109
     0.027241911655819     0.031911099932277     0.044172822548234
   1  85
    -0.010790326740947     0.000000000000059     0.000000000000025
     0.000000000000174     0.005627122304868    -0.015238579148226
     0.000000000000141    -0.015238579148718     0.016402424956238
   1  86
     0.003666271877259    -0.006997783677953    -0.004948180292041
    -0.006997783677632     0.011746616457473    -0.002856833223075
    -0.004948180291882    -0.002856833223283     0.013766702602442
   1  87
     0.008064553658848    -0.000000000000176    -0.000000000000104
     0.000000000000094     0.014421563910092     0.004495085057241
     0.000000000000092     0.004495085057144     0.011243058784494
   1  88
     0.003666271877467     0.006997783677541     0.004948180291706
     0.006997783677768     0.011746616457050    -0.002856833223352
     0.004948180291972    -0.002856833223534     0.013766702602327
   1  89
    -0.007314144952656    -0.028186565011542     0.039861822515809
    -0.009910007759437     0.016208349176406    -0.039547737507283
     0.014014867376609    -0.039547737507018     0.044172822546764
   1  90
     0.012832311347534    -0.002752666185297     0.003892857851360
    -0.002752666185223     0.009653806221513    -0.002247542528240
     0.003892857851383    -0.002247542528477     0.011243058784378
   1  91
     0.012832311347548     0.002752666184790    -0.003892857851696
     0.002752666184756     0.009653806221422    -0.002247542528278
    -0.003892857851668    -0.002247542528331     0.011243058784537
   1  92
    -0.007314144952656     0.028186565011441    -0.039861822515955
     0.009910007759214     0.016208349175509    -0.039547737506286
    -0.014014867376735    -0.039547737507345     0.044172822547715
   1  93
     0.026824025552623     0.009799674170633     0.054180256601387
    -0.008476883081256    -0.017929821328803    -0.014747482186922
     0.041256779031717     0.007636637573884     0.044172822546989
   1  94
     0.015786788747638    -0.000000000000282    -0.000000000000161
    -0.000000000000207    -0.000373900413042     0.005713666447069
    -0.000000000000019     0.005713666446817     0.013766702602600
   1  95
     0.026824025552064    -0.009799674171089    -0.054180256601624
     0.008476883080173    -0.017929821328835    -0.014747482185359
    -0.041256779031777     0.007636637574907     0.044172822548558
   1  96
    -0.053943544997019     0.000000000000556    -0.000000000000114
     0.000000000000599    -0.053943544995682     0.000000000000193
     0.000000000001317    -0.000000000001305     0.122025257806254
   1  97
    -0.053943544997019     0.000000000000556    -0.000000000000114
     0.000000000000599    -0.053943544995682     0.000000000000193
     0.000000000001317    -0.000000000001305     0.122025257806254
   1  98
     0.026824025552064    -0.009799674171089    -0.054180256601624
     0.008476883080173    -0.017929821328835    -0.014747482185359
    -0.041256779031777     0.007636637574907     0.044172822548558
   1  99
     0.015786788747638    -0.000000000000282    -0.000000000000161
    -0.000000000000207    -0.000373900413042     0.005713666447069
    -0.000000000000019     0.005713666446817     0.013766702602600
   1 100
     0.026824025552623     0.009799674170633     0.054180256601387
    -0.008476883081256    -0.017929821328803    -0.014747482186922
     0.041256779031717     0.007636637573884     0.044172822546989
   1 101
    -0.007314144952656     0.028186565011441    -0.039861822515955
     0.009910007759214     0.016208349175509    -0.039547737506286
    -0.014014867376735    -0.039547737507345     0.044172822547715
   1 102
     0.012832311347548     0.002752666184790    -0.003892857851696
     0.002752666184756     0.009653806221422    -0.002247542528278
    -0.003892857851668    -0.002247542528331     0.011243058784537
   1 103
     0.012832311347534    -0.002752666185297     0.003892857851360
    -0.002752666185223     0.009653806221513    -0.002247542528240
     0.003892857851383    -0.002247542528477     0.011243058784378
   1 104
    -0.007314144952656    -0.028186565011542     0.039861822515809
    -0.009910007759437     0.016208349176406    -0.039547737507283
     0.014014867376609    -0.039547737507018     0.044172822546764
   1 105
     0.003666271877467     0.006997783677541     0.004948180291706
     0.006997783677768     0.011746616457050    -0.002856833223352
     0.004948180291972    -0.002856833223534     0.013766702602327
   1 106
     0.008064553658848    -0.000000000000176    -0.000000000000104
     0.000000000000094     0.014421563910092     0.004495085057241
     0.000000000000092     0.004495085057144     0.011243058784494
   1 107
     0.003666271877259    -0.006997783677953    -0.004948180292041
    -0.006997783677632     0.011746616457473    -0.002856833223075
    -0.004948180291882    -0.002856833223283     0.013766702602442
   1 108
    -0.010790326740947     0.000000000000059     0.000000000000025
     0.000000000000174     0.005627122304868    -0.015238579148226
     0.000000000000141    -0.015238579148718     0.016402424956238
   1 109
    -0.006168574264158     0.010571403304479     0.014318434085587
     0.028847960556725     0.015062778486860     0.054295219693109
     0.027241911655819     0.031911099932277     0.044172822548234
   1 110
    -0.006168574264712    -0.010571403304614    -0.014318434085636
    -0.028847960556026     0.015062778487744     0.054295219693569
    -0.027241911654949     0.031911099932811     0.044172822548837
   1 111
     0.001522760043287    -0.007108963969638    -0.013196996660555
    -0.007108963969583    -0.006685964479393     0.007619289574576
    -0.013196996660132     0.007619289574240     0.016402424956826
   1 112
     0.001522760043587     0.007108963969445     0.013196996660184
     0.007108963969495    -0.006685964479675     0.007619289573978
     0.013196996660651     0.007619289574009     0.016402424956387
   1 113
    -0.345947587547556    -0.067317564226683     0.095201412318858
    -0.067317564223159    -0.268215959882247     0.054964561023338
     0.095201412317500     0.054964561025233    -0.307081773715385
   1 114
     0.072137295920073     0.009910007758965    -0.014014867377096
     0.028186565009947    -0.010275464448377    -0.002093969096434
    -0.039861822516493    -0.002093969096467    -0.008794804700379
   1 115
     0.072137295920053    -0.009910007760137     0.014014867376250
    -0.028186565012466    -0.010275464447989    -0.002093969096563
     0.039861822514722    -0.002093969096675    -0.008794804700799
   1 116
    -0.345947587547540     0.067317564231023    -0.095201412315820
     0.067317564229910    -0.268215959887762     0.054964561026665
    -0.095201412312701     0.054964561025798    -0.307081773709879
   1 117
     0.026824025552496     0.054348193856048    -0.008820864120622
     0.036071636603674     0.035037805918089    -0.011090246630313
    -0.021744341690386    -0.033474366391571    -0.008794804700428
   1 118
     0.015786788747657    -0.000000000000271    -0.000000000000285
    -0.000000000000134     0.015786788747335     0.000000000000338
    -0.000000000000184     0.000000000000231    -0.002393986557942
   1 119
     0.026824025552006    -0.054348193856324     0.008820864120282
    -0.036071636604093     0.035037805920290    -0.011090246630117
     0.021744341689420    -0.033474366390767    -0.008794804701154
   1 120
    -0.053943544995968     0.000000000000261     0.000000000000528
     0.000000000001354     0.102473168605251    -0.055301659438369
     0.000000000000220    -0.055301659438966    -0.034391455797504
   1 121
    -0.006168574264261     0.017023350218660     0.005194003256040
     0.035299907470928     0.068030405735080     0.013184215727301
     0.018117480826128     0.035568335488722    -0.008794804700458
   1 122
    -0.006168574264368    -0.017023350218781    -0.005194003256160
    -0.035299907469687     0.068030405736004     0.013184215727914
    -0.018117480825763     0.035568335489411    -0.008794804700220
   1 123
     0.001522760043250    -0.014811902429807    -0.002303396620186
    -0.014811902429281     0.018626071753377    -0.001329866658358
    -0.002303396620316    -0.001329866658125    -0.008909611276136
   1 124
     0.001522760043739     0.014811902429327     0.002303396620006
     0.014811902429607     0.018626071752728    -0.001329866658395
     0.002303396620062    -0.001329866658561    -0.008909611276421
   1 125
    -0.229350146058778    -0.000000000001906    -0.000000000001372
    -0.000000000001823    -0.384813401370675    -0.109929122057068
    -0.000000000001277    -0.109929122057083    -0.307081773716442
   1 126
     0.063368990204683    -0.067730423779015    -0.047892641947174
    -0.067730423778663    -0.014839366594976     0.027650829720405
    -0.047892641947158     0.027650829720517    -0.034391455794704
   1 127
     0.027177727608292    -0.000000000000409    -0.000000000000306
    -0.000000000000354    -0.007028895811644     0.002659733317362
    -0.000000000000248     0.002659733317281    -0.008909611276123
   1 128
     0.063368990206293     0.067730423776961     0.047892641945844
     0.067730423777016    -0.014839366597608     0.027650829719317
     0.047892641945896     0.027650829719255    -0.034391455796577
   2   1
    -0.256130886338758     0.000000000002269     0.000000000001611
     0.000000000002189     0.117812288279750    -0.062938118452463
     0.000000000001536    -0.062938118452374     0.162316258631390
   2   2
     1.921438582135669    -0.000000000000108    -0.000000000000093
    -0.000000000000108     1.921438582135141     0.000000000000265
    -0.000000000000093     0.000000000000265     1.921438582135185
   2   3
    -0.256130886338494     0.000000000002255     0.000000000001571
     0.000000000002261     0.117812288279988    -0.062938118452327
     0.000000000001604    -0.062938118452367     0.162316258631533
   2   4
    -0.045283310326918     0.000000000000141     0.000000000000083
     0.000000000000141     0.000573388200114    -0.015683626520362
     0.000000000000083    -0.015683626520362     0.011663386866133
   2   5
     0.024326494625709     0.161922144394416     0.054506009445882
     0.161922144393670    -0.162645092688253     0.031469059223101
     0.054506009448482     0.031469059222127     0.162316258632881
   2   6
     0.024326494625121    -0.161922144394454    -0.054506009448335
    -0.161922144396953    -0.162645092680102     0.031469059227220
    -0.054506009446787     0.031469059227334     0.162316258633788
   2   7
    -0.037445694113495    -0.023935277799547     0.004413392365219
    -0.023935277799573    -0.009807615951910     0.002548073270274
     0.004413392365256     0.002548073270247     0.017655846471474
   2   8
    -0.037445694113817     0.023935277800087    -0.004413392365036
     0.023935277799633    -0.009807615952393     0.002548073270088
    -0.004413392364487     0.002548073269703     0.017655846471578
   2   9
     0.004011423129048     0.000000000000168     0.000000000000035
    -0.000000000000451    -0.051264733193935    -0.005096146540397
     0.000000000000054    -0.005096146540518     0.017655846471544
   2  10
    -0.010890786432048    -0.019856532929360    -0.013582418990543
    -0.019856532929178    -0.033819135694430     0.007841813260343
    -0.013582418990384     0.007841813259942     0.011663386866819
   2  11
     0.004011423128884    -0.000000000000156    -0.000000000000163
    -0.000000000000614    -0.051264733193406    -0.005096146540274
    -0.000000000000155    -0.005096146541163     0.017655846471437
   2  12
    -0.010890786431668     0.019856532929400     0.013582418990555
     0.019856532928934    -0.033819135695279     0.007841813259756
     0.013582418990852     0.007841813259274     0.011663386866357
   2  13
    -0.037445694113020    -0.023935277799083     0.004413392365255
    -0.023935277798916    -0.009807615951550     0.002548073270138
     0.004413392365711     0.002548073270424     0.017655846471483
   2  14
     0.024326494623548    -0.161922144397533    -0.054506009447625
    -0.161922144395477    -0.162645092678772     0.031469059227724
    -0.054506009448197     0.031469059224403     0.162316258633523
   2  15
     0.024326494627985     0.161922144394014     0.054506009447788
     0.161922144393989    -0.162645092687150     0.031469059223590