nqpoint: 404    
npath: 4      
segment_nqpoint:
- 101
- 101
- 101
- 101
labels:
- [ '$\Gamma$', 'X' ]
- [ 'X', 'K' ]
- [ 'K', '$\Gamma$' ]
- [ '$\Gamma$', 'L' ]
reciprocal_lattice:
- [  -0.17686126,   0.17686126,   0.17686126 ] # a*
- [   0.17686126,  -0.17686126,   0.17686126 ] # b*
- [   0.17686126,   0.17686126,  -0.17686126 ] # c*
natom: 2      
lattice:
- [     0.000000000000000,     2.827074733835000,     2.827074733835000 ] # a
- [     2.827074733835000,     0.000000000000000,     2.827074733835000 ] # b
- [     2.827074733835000,     2.827074733835000,     0.000000000000000 ] # c
points:
- symbol: Na # 1
  coordinates: [  0.000000000000000,  0.000000000000000,  0.000000000000000 ]
  mass: 22.989769
- symbol: Cl # 2
  coordinates: [  0.500000000000000,  0.500000000000000,  0.500000000000000 ]
  mass: 35.450000

phonon:
- q-position: [    0.0001000,    0.0001000,    1.0000000 ]
  distance:    0.0000000
  band:
  - # 1
    frequency:   -0.0072347246
    eigenvector:
    - # atom 1
      - [ -0.38055236139690,  0.00000000000000 ]
      - [ -0.38055236180146,  0.00000000000000 ]
      - [  0.32210630370269, -0.00000000000008 ]
    - # atom 2
      - [  0.47255798896256,  0.00000000000000 ]
      - [  0.47255798946493, -0.00000000000000 ]
      - [ -0.39998152824610,  0.00000000000009 ]
  - # 2
    frequency:   -0.0031179085
    eigenvector:
    - # atom 1
      - [  0.44350455272648, -0.00000000000000 ]
      - [ -0.44350455285379, -0.00000000000003 ]
      - [ -0.00000000070744, -0.00000000000004 ]
    - # atom 2
      - [ -0.55073016220955, -0.00000000000000 ]
      - [  0.55073016236764,  0.00000000000003 ]
      - [  0.00000000087848,  0.00000000000004 ]
  - # 3
    frequency:   -0.0020716247
    eigenvector:
    - # atom 1
      - [ -0.22776352647355,  0.00000000000000 ]
      - [ -0.22776352554971, -0.00000000000006 ]
      - [ -0.53818223745927,  0.00000000000006 ]
    - # atom 2
      - [  0.28282967216111,  0.00000000000000 ]
      - [  0.28282967101391,  0.00000000000007 ]
      - [  0.66829797654956, -0.00000000000007 ]
  - # 4
    frequency:    9.5027985916
    eigenvector:
    - # atom 1
      - [  0.55073012587581,  0.00000000000000 ]
      - [  0.55073013450590, -0.00000000000010 ]
      - [ -0.00000001994066,  0.00000000000000 ]
    - # atom 2
      - [  0.44350458917319,  0.00000000000000 ]
      - [  0.44350459612302, -0.00000000000008 ]
      - [ -0.00000008175681, -0.00000000000000 ]
  - # 5
    frequency:    9.5027987605
    eigenvector:
    - # atom 1
      - [  0.55073016660364, -0.00000000000000 ]
      - [ -0.55073015797355,  0.00000000000010 ]
      - [ -0.00000000000000,  0.00000000000000 ]
    - # atom 2
      - [  0.44350455626505,  0.00000000000000 ]
      - [ -0.44350454931522,  0.00000000000008 ]
      - [ -0.00000000000000,  0.00000000000000 ]
  - # 6
    frequency:   11.1474456390
    eigenvector:
    - # atom 1
      - [ -0.00000005328550,  0.00000000000000 ]
      - [ -0.00000005328550,  0.00000000000000 ]
      - [ -0.77885005514433,  0.00000000009698 ]
    - # atom 2
      - [ -0.00000000915169,  0.00000000000000 ]
      - [ -0.00000000915169,  0.00000000000000 ]
      - [ -0.62721016541641,  0.00000000007810 ]

- q-position: [    0.0050990,    0.0050990,    1.0000000 ]
  distance:    0.0017683
  band:
  - # 1
    frequency:    0.0951832045
    eigenvector:
    - # atom 1
      - [  0.44351222515856,  0.00000000000000 ]
      - [  0.44351222453372, -0.00000000000051 ]
      - [ -0.00064276328871,  0.00000000000000 ]
    - # atom 2
      - [ -0.55072350757117, -0.00000000000000 ]
      - [ -0.55072350679528,  0.00000000000063 ]
      - [  0.00079809211981, -0.00000000000000 ]
  - # 2
    frequency:    0.0953369671
    eigenvector:
    - # atom 1
      - [  0.44351241841040,  0.00000000000000 ]
      - [ -0.44351241903524,  0.00000000000051 ]
      - [  0.00000000000038, -0.00000000000000 ]
    - # atom 2
      - [ -0.55072382735027, -0.00000000000000 ]
      - [  0.55072382812616, -0.00000000000063 ]
      - [ -0.00000000000048,  0.00000000000000 ]
  - # 3
    frequency:    0.1707001964
    eigenvector:
    - # atom 1
      - [ -0.00045445834675,  0.00000000000000 ]
      - [ -0.00045445834665, -0.00000000000000 ]
      - [ -0.62721635530234,  0.00000000000010 ]
    - # atom 2
      - [  0.00056437173058, -0.00000000000000 ]
      - [  0.00056437173046,  0.00000000000000 ]
      - [  0.77884439623430, -0.00000000000012 ]
  - # 4
    frequency:    9.5030233689
    eigenvector:
    - # atom 1
      - [  0.55072379048300,  0.00000000000000 ]
      - [  0.55072380224147, -0.00000000000586 ]
      - [ -0.00000001910716,  0.00000000000000 ]
    - # atom 2
      - [  0.44351245294869,  0.00000000000000 ]
      - [  0.44351246241809, -0.00000000000472 ]
      - [ -0.00000007924415, -0.00000000000000 ]
  - # 5
    frequency:    9.5030235361
    eigenvector:
    - # atom 1
      - [ -0.55072383361745,  0.00000000000000 ]
      - [  0.55072382185898, -0.00000000000586 ]
      - [  0.00000000000000, -0.00000000000000 ]
    - # atom 2
      - [ -0.44351242345753, -0.00000000000000 ]
      - [  0.44351241398812, -0.00000000000472 ]
      - [  0.00000000000000,  0.00000000000000 ]
  - # 6
    frequency:   11.1444713674
    eigenvector:
    - # atom 1
      - [  0.00000005160353,  0.00000000000000 ]
      - [  0.00000005160353, -0.00000000000000 ]
      - [  0.77884480514195, -0.00000000011366 ]
    - # atom 2
      - [  0.00000000873276, -0.00000000000000 ]
      - [  0.00000000873276, -0.00000000000000 ]
      - [  0.62721668465004, -0.00000000009154 ]

- q-position: [    0.0100980,    0.0100980,    1.0000000 ]
  distance:    0.0035365
  band:
  - # 1
    frequency:    0.1888000612
    eigenvector:
    - # atom 1
      - [  0.44353542664440,  0.00000000000000 ]
      - [  0.44353542595791, -0.00000000000098 ]
      - [ -0.00015942786977,  0.00000000000000 ]
    - # atom 2
      - [ -0.55070526944439, -0.00000000000000 ]
      - [ -0.55070526859202,  0.00000000000121 ]
      - [  0.00019790310656, -0.00000000000000 ]
  - # 2
    frequency:    0.1888758500
    eigenvector:
    - # atom 1
      - [ -0.44353540218759,  0.00000000000000 ]
      - [  0.44353540287408, -0.00000000000098 ]
      - [ -0.00000000000002,  0.00000000000000 ]
    - # atom 2
      - [  0.55070531705478,  0.00000000000000 ]
      - [ -0.55070531790715,  0.00000000000121 ]
      - [  0.00000000000003, -0.00000000000000 ]
  - # 3
    frequency:    0.3381424443
    eigenvector:
    - # atom 1
      - [ -0.00011268974558,  0.00000000000000 ]
      - [ -0.00011268974544, -0.00000000000000 ]
      - [ -0.62723578044227, -0.00000000000028 ]
    - # atom 2
      - [  0.00013997308475, -0.00000000000000 ]
      - [  0.00013997308457,  0.00000000000000 ]
      - [  0.77882938513521,  0.00000000000034 ]
  - # 4
    frequency:    9.5036800667
    eigenvector:
    - # atom 1
      - [  0.55070529385793,  0.00000000000000 ]
      - [  0.55070527975551, -0.00000000001050 ]
      - [ -0.00000001848235,  0.00000000000000 ]
    - # atom 2
      - [  0.44353544629580,  0.00000000000000 ]
      - [  0.44353543493777, -0.00000000000846 ]
      - [ -0.00000007699133, -0.00000000000000 ]
  - # 5
    frequency:    9.5036802322
    eigenvector:
    - # atom 1
      - [ -0.55070531042976,  0.00000000000000 ]
      - [  0.55070532453218, -0.00000000001050 ]
      - [  0.00000000000000, -0.00000000000000 ]
    - # atom 2
      - [ -0.44353539685182, -0.00000000000000 ]
      - [  0.44353540820984, -0.00000000000846 ]
      - [ -0.00000000000000,  0.00000000000000 ]
  - # 6
    frequency:   11.1357891025
    eigenvector:
    - # atom 1
      - [  0.00000005013426,  0.00000000000000 ]
      - [  0.00000005013426, -0.00000000000000 ]
      - [  0.77882941027913, -0.00000000014282 ]
    - # atom 2
      - [  0.00000000841861, -0.00000000000000 ]
      - [  0.00000000841861, -0.00000000000000 ]
      - [  0.62723580070358, -0.00000000011502 ]

- q-position: [    0.0150970,    0.0150970,    1.0000000 ]
  distance:    0.0053048
  band:
  - # 1
    frequency:    0.2822836252
    eigenvector:
    - # atom 1
      - [  0.44357351202304,  0.00000000000000 ]
      - [  0.44357351120622, -0.00000000000175 ]
      - [ -0.00006938081161,  0.00000000000000 ]
    - # atom 2
      - [ -0.55067461739209, -0.00000000000000 ]
      - [ -0.55067461637804,  0.00000000000217 ]
      - [  0.00008608720154, -0.00000000000000 ]
  - # 2
    frequency:    0.2823331865
    eigenvector:
    - # atom 1
      - [ -0.44357347668111,  0.00000000000000 ]
      - [  0.44357347749794, -0.00000000000175 ]
      - [ -0.00000000000008,  0.00000000000000 ]
    - # atom 2
      - [  0.55067464973820,  0.00000000000000 ]
      - [ -0.55067465075226,  0.00000000000217 ]
      - [  0.00000000000010, -0.00000000000000 ]
  - # 3
    frequency:    0.5055014584
    eigenvector:
    - # atom 1
      - [ -0.00004901795002,  0.00000000000000 ]
      - [ -0.00004901795005, -0.00000000000000 ]
      - [ -0.62726767729320,  0.00000000000022 ]
    - # atom 2
      - [  0.00006090642606, -0.00000000000000 ]
      - [  0.00006090642610,  0.00000000000000 ]
      - [  0.77880372931727, -0.00000000000027 ]
  - # 4
    frequency:    9.5047677096
    eigenvector:
    - # atom 1
      - [  0.55067461251693,  0.00000000000000 ]
      - [  0.55067462798965, -0.00000000001470 ]
      - [ -0.00000001805139,  0.00000000000000 ]
    - # atom 2
      - [  0.44357350809133,  0.00000000000000 ]
      - [  0.44357352055475, -0.00000000001184 ]
      - [ -0.00000007498158, -0.00000000000000 ]
  - # 5
    frequency:    9.5047678735
    eigenvector:
    - # atom 1
      - [ -0.55067465798159,  0.00000000000000 ]
      - [  0.55067464250887, -0.00000000001470 ]
      - [ -0.00000000000000, -0.00000000000000 ]
    - # atom 2
      - [ -0.44357348332124, -0.00000000000000 ]
      - [  0.44357347085781, -0.00000000001184 ]
      - [  0.00000000000000,  0.00000000000000 ]
  - # 6
    frequency:   11.1214333135
    eigenvector:
    - # atom 1
      - [  0.00000004886343,  0.00000000000000 ]
      - [  0.00000004886343, -0.00000000000000 ]
      - [  0.77880373407521, -0.00000000017015 ]
    - # atom 2
      - [  0.00000000820192, -0.00000000000000 ]
      - [  0.00000000820192, -0.00000000000000 ]
      - [  0.62726768113023, -0.00000000013704 ]

- q-position: [    0.0200960,    0.0200960,    1.0000000 ]
  distance:    0.0070730
  band:
  - # 1
    frequency:    0.3756604770
    eigenvector:
    - # atom 1
      - [  0.44362663361516,  0.00000000000000 ]
      - [  0.44362663249709, -0.00000000000210 ]
      - [ -0.00003810019891,  0.00000000000000 ]
    - # atom 2
      - [ -0.55063182741788, -0.00000000000000 ]
      - [ -0.55063182603011,  0.00000000000261 ]
      - [  0.00004724550560, -0.00000000000000 ]
  - # 2
    frequency:    0.3756968936
    eigenvector:
    - # atom 1
      - [ -0.44362659691000,  0.00000000000000 ]
      - [  0.44362659802808, -0.00000000000210 ]
      - [ -0.00000000000001,  0.00000000000000 ]
    - # atom 2
      - [  0.55063185637402,  0.00000000000000 ]
      - [ -0.55063185776178,  0.00000000000261 ]
      - [  0.00000000000001, -0.00000000000000 ]
  - # 3
    frequency:    0.6727695553
    eigenvector:
    - # atom 1
      - [ -0.00002690023537,  0.00000000000000 ]
      - [ -0.00002690023532, -0.00000000000000 ]
      - [ -0.62731260454701, -0.00000000000111 ]
    - # atom 2
      - [  0.00003344038439, -0.00000000000000 ]
      - [  0.00003344038433,  0.00000000000000 ]
      - [  0.77876754714914,  0.00000000000138 ]
  - # 4
    frequency:    9.5062846833
    eigenvector:
    - # atom 1
      - [  0.55063182551512,  0.00000000000000 ]
      - [  0.55063182996373, -0.00000000002107 ]
      - [ -0.00000001780376,  0.00000000000000 ]
    - # atom 2
      - [  0.44362663207965,  0.00000000000000 ]
      - [  0.44362663566376, -0.00000000001698 ]
      - [ -0.00000007320196, -0.00000000000000 ]
  - # 5
    frequency:    9.5062848456
    eigenvector:
    - # atom 1
      - [ -0.55063185929220,  0.00000000000000 ]
      - [  0.55063185484359, -0.00000000002107 ]
      - [ -0.00000000000000, -0.00000000000000 ]
    - # atom 2
      - [ -0.44362659926109, -0.00000000000000 ]
      - [  0.44362659567699, -0.00000000001698 ]
      - [  0.00000000000000,  0.00000000000000 ]
  - # 6
    frequency:   11.1014610621
    eigenvector:
    - # atom 1
      - [  0.00000004778009,  0.00000000000000 ]
      - [  0.00000004778009, -0.00000000000000 ]
      - [  0.77876754858226, -0.00000000022656 ]
    - # atom 2
      - [  0.00000000807777, -0.00000000000000 ]
      - [  0.00000000807777, -0.00000000000000 ]
      - [  0.62731260570402, -0.00000000018250 ]

- q-position: [    0.0250950,    0.0250950,    1.0000000 ]
  distance:    0.0088413
  band:
  - # 1
    frequency:    0.4689128914
    eigenvector:
    - # atom 1
      - [  0.44369473674352,  0.00000000000000 ]
      - [  0.44369473579472, -0.00000000000264 ]
      - [ -0.00002378258961,  0.00000000000000 ]
    - # atom 2
      - [ -0.55057695278528, -0.00000000000000 ]
      - [ -0.55057695160792,  0.00000000000327 ]
      - [  0.00002946781293, -0.00000000000000 ]
  - # 2
    frequency:    0.4689414223
    eigenvector:
    - # atom 1
      - [ -0.44369470051909,  0.00000000000000 ]
      - [  0.44369470146789, -0.00000000000264 ]
      - [ -0.00000000000001,  0.00000000000000 ]
    - # atom 2
      - [  0.55057698068669,  0.00000000000000 ]
      - [ -0.55057698186405,  0.00000000000327 ]
      - [  0.00000000000002, -0.00000000000000 ]
  - # 3
    frequency:    0.8399229392
    eigenvector:
    - # atom 1
      - [ -0.00001677710654,  0.00000000000000 ]
      - [ -0.00001677710653, -0.00000000000000 ]
      - [ -0.62737096894453, -0.00000000000064 ]
    - # atom 2
      - [  0.00002086889891, -0.00000000000000 ]
      - [  0.00002086889889,  0.00000000000000 ]
      - [  0.77872053131508,  0.00000000000079 ]
  - # 4
    frequency:    9.5082287386
    eigenvector:
    - # atom 1
      - [  0.55057694119411,  0.00000000000000 ]
      - [  0.55057696399009, -0.00000000002609 ]
      - [ -0.00000001773298,  0.00000000000000 ]
    - # atom 2
      - [  0.44369472740098,  0.00000000000000 ]
      - [  0.44369474577164, -0.00000000002102 ]
      - [ -0.00000007164313, -0.00000000000000 ]
  - # 5
    frequency:    9.5082288992
    eigenvector:
    - # atom 1
      - [ -0.55057699267336,  0.00000000000000 ]
      - [  0.55057696987738, -0.00000000002609 ]
      - [  0.00000000000000, -0.00000000000000 ]
    - # atom 2
      - [ -0.44369471017882, -0.00000000000000 ]
      - [  0.44369469180816, -0.00000000002102 ]
      - [  0.00000000000000,  0.00000000000000 ]
  - # 6
    frequency:   11.0759518771
    eigenvector:
    - # atom 1
      - [  0.00000004687639,  0.00000000000000 ]
      - [  0.00000004687639, -0.00000000000000 ]
      - [  0.77872053187263, -0.00000000018772 ]
    - # atom 2
      - [  0.00000000804352, -0.00000000000000 ]
      - [  0.00000000804352, -0.00000000000000 ]
      - [  0.62737096939530, -0.00000000015124 ]

- q-position: [    0.0300940,    0.0300940,    1.0000000 ]
  distance:    0.0106096
  band:
  - # 1
    frequency:    0.5620157343
    eigenvector:
    - # atom 1
      - [  0.44377774188028,  0.00000000000000 ]
      - [  0.44377774208370, -0.00000000000309 ]
      - [ -0.00001610376443,  0.00000000000000 ]
    - # atom 2
      - [ -0.55051005009364, -0.00000000000000 ]
      - [ -0.55051005034599,  0.00000000000383 ]
      - [  0.00001993383680, -0.00000000000000 ]
  - # 2
    frequency:    0.5620390163
    eigenvector:
    - # atom 1
      - [ -0.44377770742536,  0.00000000000000 ]
      - [  0.44377770722194, -0.00000000000309 ]
      - [ -0.00000000000000,  0.00000000000000 ]
    - # atom 2
      - [  0.55051007858302,  0.00000000000000 ]
      - [ -0.55051007833067,  0.00000000000383 ]
      - [  0.00000000000000, -0.00000000000000 ]
  - # 3
    frequency:    1.0069350316
    eigenvector:
    - # atom 1
      - [ -0.00001134824170,  0.00000000000000 ]
      - [ -0.00001134824171, -0.00000000000000 ]
      - [ -0.62744328638509,  0.00000000000024 ]
    - # atom 2
      - [  0.00001412665510, -0.00000000000000 ]
      - [  0.00001412665511,  0.00000000000000 ]
      - [  0.77866226421574, -0.00000000000030 ]
  - # 4
    frequency:    9.5105969966
    eigenvector:
    - # atom 1
      - [  0.55051004461206,  0.00000000000000 ]
      - [  0.55051005619007, -0.00000000003286 ]
      - [ -0.00000001783652,  0.00000000000000 ]
    - # atom 2
      - [  0.44377773746045,  0.00000000000000 ]
      - [  0.44377774679373, -0.00000000002649 ]
      - [ -0.00000007029927, -0.00000000000000 ]
  - # 5
    frequency:    9.5105971556
    eigenvector:
    - # atom 1
      - [ -0.55051008424585,  0.00000000000000 ]
      - [  0.55051007266784, -0.00000000003286 ]
      - [  0.00000000000000, -0.00000000000000 ]
    - # atom 2
      - [ -0.44377771199029, -0.00000000000000 ]
      - [  0.44377770265701, -0.00000000002649 ]
      - [  0.00000000000000,  0.00000000000000 ]
  - # 6
    frequency:   11.0450075758
    eigenvector:
    - # atom 1
      - [  0.00000004614752,  0.00000000000000 ]
      - [  0.00000004614752, -0.00000000000000 ]
      - [  0.77866226447089, -0.00000000018674 ]
    - # atom 2
      - [  0.00000000809874, -0.00000000000000 ]
      - [  0.00000000809874, -0.00000000000000 ]
      - [  0.62744328659175, -0.00000000015048 ]

- q-position: [    0.0350930,    0.0350930,    1.0000000 ]
  distance:    0.0123778
  band:
  - # 1
    frequency:    0.6549418214
    eigenvector:
    - # atom 1
      - [  0.44387555197054,  0.00000000000000 ]
      - [  0.44387555307512, -0.00000000000472 ]
      - [ -0.00001153635835,  0.00000000000000 ]
    - # atom 2
      - [ -0.55043118820643, -0.00000000000000 ]
      - [ -0.55043118957616,  0.00000000000585 ]
      - [  0.00001426341208, -0.00000000000000 ]
  - # 2
    frequency:    0.6549613637
    eigenvector:
    - # atom 1
      - [ -0.44387551911542,  0.00000000000000 ]
      - [  0.44387551801084, -0.00000000000472 ]
      - [  0.00000000000002,  0.00000000000000 ]
    - # atom 2
      - [  0.55043121711460,  0.00000000000000 ]
      - [ -0.55043121574486,  0.00000000000585 ]
      - [ -0.00000000000003, -0.00000000000000 ]
  - # 3
    frequency:    1.1737783979
    eigenvector:
    - # atom 1
      - [ -0.00000811942067,  0.00000000000000 ]
      - [ -0.00000811942066, -0.00000000000000 ]
      - [ -0.62753019652495, -0.00000000000220 ]
    - # atom 2
      - [  0.00001011640558, -0.00000000000000 ]
      - [  0.00001011640557,  0.00000000000000 ]
      - [  0.77859222453915,  0.00000000000273 ]
  - # 4
    frequency:    9.5133859561
    eigenvector:
    - # atom 1
      - [  0.55043118881378,  0.00000000000000 ]
      - [  0.55043118915474, -0.00000000003745 ]
      - [ -0.00000001811598,  0.00000000000000 ]
    - # atom 2
      - [  0.44387555245961,  0.00000000000000 ]
      - [  0.44387555273457, -0.00000000003020 ]
      - [ -0.00000006916819, -0.00000000000000 ]
  - # 5
    frequency:    9.5133861135
    eigenvector:
    - # atom 1
      - [ -0.55043121660021,  0.00000000000000 ]
      - [  0.55043121625925, -0.00000000003745 ]
      - [  0.00000000000000, -0.00000000000000 ]
    - # atom 2
      - [ -0.44387551870061, -0.00000000000000 ]
      - [  0.44387551842565, -0.00000000003020 ]
      - [  0.00000000000000,  0.00000000000000 ]
  - # 6
    frequency:   11.0087520325
    eigenvector:
    - # atom 1
      - [  0.00000004559176,  0.00000000000000 ]
      - [  0.00000004559176, -0.00000000000000 ]
      - [  0.77859222466980, -0.00000000017465 ]
    - # atom 2
      - [  0.00000000824536, -0.00000000000000 ]
      - [  0.00000000824536, -0.00000000000000 ]
      - [  0.62753019663099, -0.00000000014076 ]

- q-position: [    0.0400920,    0.0400920,    1.0000000 ]
  distance:    0.0141461
  band:
  - # 1
    frequency:    0.7476632814
    eigenvector:
    - # atom 1
      - [  0.44398805280363,  0.00000000000000 ]
      - [  0.44398805245753, -0.00000000000421 ]
      - [ -0.00000861364333,  0.00000000000000 ]
    - # atom 2
      - [ -0.55034044850779, -0.00000000000000 ]
      - [ -0.55034044807878,  0.00000000000521 ]
      - [  0.00001063520804, -0.00000000000000 ]
  - # 2
    frequency:    0.7476800281
    eigenvector:
    - # atom 1
      - [  0.44398801921490,  0.00000000000000 ]
      - [ -0.44398801956100,  0.00000000000421 ]
      - [  0.00000000000000, -0.00000000000000 ]
    - # atom 2
      - [ -0.55034047498241, -0.00000000000000 ]
      - [  0.55034047541141, -0.00000000000521 ]
      - [ -0.00000000000000,  0.00000000000000 ]
  - # 3
    frequency:    1.3404252215
    eigenvector:
    - # atom 1
      - [  0.00000605351347,  0.00000000000000 ]
      - [  0.00000605351347,  0.00000000000000 ]
      - [  0.62763247067383,  0.00000000000070 ]
    - # atom 2
      - [ -0.00000755027226,  0.00000000000000 ]
      - [ -0.00000755027225, -0.00000000000000 ]
      - [ -0.77850978257730, -0.00000000000086 ]
  - # 4
    frequency:    9.5165915021
    eigenvector:
    - # atom 1
      - [  0.55034044518742,  0.00000000000000 ]
      - [  0.55034045150274, -0.00000000004401 ]
      - [ -0.00000001857741,  0.00000000000000 ]
    - # atom 2
      - [  0.44398805012440,  0.00000000000000 ]
      - [  0.44398805521929, -0.00000000003550 ]
      - [ -0.00000006825156, -0.00000000000000 ]
  - # 5
    frequency:    9.5165916580
    eigenvector:
    - # atom 1
      - [  0.55034047835457, -0.00000000000000 ]
      - [ -0.55034047203925,  0.00000000004401 ]
      - [ -0.00000000000000,  0.00000000000000 ]
    - # atom 2
      - [  0.44398802193540,  0.00000000000000 ]
      - [ -0.44398801684051,  0.00000000003550 ]
      - [ -0.00000000000000, -0.00000000000000 ]
  - # 6
    frequency:   10.9673308905
    eigenvector:
    - # atom 1
      - [ -0.00000004521075,  0.00000000000000 ]
      - [ -0.00000004521075,  0.00000000000000 ]
      - [ -0.77850978264995,  0.00000000020194 ]
    - # atom 2
      - [ -0.00000000848781,  0.00000000000000 ]
      - [ -0.00000000848781,  0.00000000000000 ]
      - [ -0.62763247073293,  0.00000000016281 ]

- q-position: [    0.0450910,    0.0450910,    1.0000000 ]
  distance:    0.0159143
  band:
  - # 1
    frequency:    0.8401520253
    eigenvector:
    - # atom 1
      - [  0.44411510978202,  0.00000000000000 ]
      - [  0.44411510967383, -0.00000000000524 ]
      - [ -0.00000663875234,  0.00000000000000 ]
    - # atom 2
      - [ -0.55023792065759, -0.00000000000000 ]
      - [ -0.55023792052354,  0.00000000000650 ]
      - [  0.00000818388299, -0.00000000000000 ]
  - # 2
    frequency:    0.8401666061
    eigenvector:
    - # atom 1
      - [  0.44411507714555,  0.00000000000000 ]
      - [ -0.44411507725374,  0.00000000000524 ]
      - [  0.00000000000000, -0.00000000000000 ]
    - # atom 2
      - [ -0.55023794682864, -0.00000000000000 ]
      - [  0.55023794696269, -0.00000000000650 ]
      - [ -0.00000000000000,  0.00000000000000 ]
  - # 3
    frequency:    1.5068474521
    eigenvector:
    - # atom 1
      - [  0.00000465776389,  0.00000000000000 ]
      - [  0.00000465776389,  0.00000000000000 ]
      - [  0.62775102040900, -0.00000000000374 ]
    - # atom 2
      - [ -0.00000581636356,  0.00000000000000 ]
      - [ -0.00000581636356,  0.00000000000000 ]
      - [ -0.77841419325730,  0.00000000000464 ]
  - # 4
    frequency:    9.5202089159
    eigenvector:
    - # atom 1
      - [  0.55023791859523,  0.00000000000000 ]
      - [  0.55023792264737, -0.00000000004870 ]
      - [ -0.00000001923196,  0.00000000000000 ]
    - # atom 2
      - [  0.44411510811704,  0.00000000000000 ]
      - [  0.44411511138766, -0.00000000003930 ]
      - [ -0.00000006755547, -0.00000000000000 ]
  - # 5
    frequency:    9.5202090701
    eigenvector:
    - # atom 1
      - [  0.55023794892174, -0.00000000000000 ]
      - [ -0.55023794486959,  0.00000000004870 ]
      - [ -0.00000000000000,  0.00000000000000 ]
    - # atom 2
      - [  0.44411507883495,  0.00000000000000 ]
      - [ -0.44411507556433,  0.00000000003930 ]
      - [ -0.00000000000000, -0.00000000000000 ]
  - # 6
    frequency:   10.9209112142
    eigenvector:
    - # atom 1
      - [ -0.00000004500990,  0.00000000000000 ]
      - [ -0.00000004500990,  0.00000000000000 ]
      - [ -0.77841419330032,  0.00000000024355 ]
    - # atom 2
      - [ -0.00000000883345,  0.00000000000000 ]
      - [ -0.00000000883345,  0.00000000000000 ]
      - [ -0.62775102044410,  0.00000000019641 ]

- q-position: [    0.0500900,    0.0500900,    1.0000000 ]
  distance:    0.0176826
  band:
  - # 1
    frequency:    0.9323799465
    eigenvector:
    - # atom 1
      - [  0.44425657469981,  0.00000000000000 ]
      - [  0.44425657355292, -0.00000000000535 ]
      - [ -0.00000524687275,  0.00000000000000 ]
    - # atom 2
      - [ -0.55012371071622, -0.00000000000000 ]
      - [ -0.55012370929603,  0.00000000000662 ]
      - [  0.00000645642960, -0.00000000000000 ]
  - # 2
    frequency:    0.9323928023
    eigenvector:
    - # atom 1
      - [  0.44425654172818,  0.00000000000000 ]
      - [ -0.44425654287507,  0.00000000000535 ]
      - [  0.00000000000001, -0.00000000000000 ]
    - # atom 2
      - [ -0.55012373502778, -0.00000000000000 ]
      - [  0.55012373644798, -0.00000000000662 ]
      - [ -0.00000000000001,  0.00000000000000 ]
  - # 3
    frequency:    1.6730168558
    eigenvector:
    - # atom 1
      - [  0.00000367421342,  0.00000000000000 ]
      - [  0.00000367421342,  0.00000000000000 ]
      - [  0.62788690771146, -0.00000000000485 ]
    - # atom 2
      - [ -0.00000459435256,  0.00000000000000 ]
      - [ -0.00000459435256, -0.00000000000000 ]
      - [ -0.77830458758466,  0.00000000000601 ]
  - # 4
    frequency:    9.5242328861
    eigenvector:
    - # atom 1
      - [  0.55012371614728,  0.00000000000000 ]
      - [  0.55012370390333, -0.00000000005236 ]
      - [ -0.00000002009689,  0.00000000000000 ]
    - # atom 2
      - [  0.44425657908540,  0.00000000000000 ]
      - [  0.44425656919771, -0.00000000004229 ]
      - [ -0.00000006709121, -0.00000000000000 ]
  - # 5
    frequency:    9.5242330388
    eigenvector:
    - # atom 1
      - [  0.55012372961591, -0.00000000000000 ]
      - [ -0.55012374185985,  0.00000000005236 ]
      - [ -0.00000000000000,  0.00000000000000 ]
    - # atom 2
      - [  0.44425653735778,  0.00000000000000 ]
      - [ -0.44425654724547,  0.00000000004229 ]
      - [  0.00000000000000,  0.00000000000000 ]
  - # 6
    frequency:   10.8696810786
    eigenvector:
    - # atom 1
      - [ -0.00000004499907,  0.00000000000000 ]
      - [ -0.00000004499907,  0.00000000000000 ]
      - [ -0.77830458761144,  0.00000000023920 ]
    - # atom 2
      - [ -0.00000000929314,  0.00000000000000 ]
      - [ -0.00000000929314,  0.00000000000000 ]
      - [ -0.62788690773338,  0.00000000019297 ]

- q-position: [    0.0550890,    0.0550890,    1.0000000 ]
  distance:    0.0194508
  band:
  - # 1
    frequency:    1.0243190224
    eigenvector:
    - # atom 1
      - [  0.44441227895388,  0.00000000000000 ]
      - [  0.44441227951469, -0.00000000000594 ]
      - [ -0.00000423236529,  0.00000000000000 ]
    - # atom 2
      - [ -0.54999793241575, -0.00000000000000 ]
      - [ -0.54999793310980,  0.00000000000735 ]
      - [  0.00000519749676, -0.00000000000000 ]
  - # 2
    frequency:    1.0243304738
    eigenvector:
    - # atom 1
      - [ -0.44441224837945,  0.00000000000000 ]
      - [  0.44441224781864, -0.00000000000594 ]
      - [  0.00000000000001,  0.00000000000000 ]
    - # atom 2
      - [  0.54999795828828,  0.00000000000000 ]
      - [ -0.54999795759423,  0.00000000000735 ]
      - [ -0.00000000000001, -0.00000000000000 ]
  - # 3
    frequency:    1.8389050288
    eigenvector:
    - # atom 1
      - [  0.00000295745592,  0.00000000000000 ]
      - [  0.00000295745592,  0.00000000000000 ]
      - [  0.62804135689625, -0.00000000000462 ]
    - # atom 2
      - [ -0.00000370367649,  0.00000000000000 ]
      - [ -0.00000370367648,  0.00000000000000 ]
      - [ -0.77817996246562,  0.00000000000572 ]
  - # 4
    frequency:    9.5286575223
    eigenvector:
    - # atom 1
      - [  0.54999793103911,  0.00000000000000 ]
      - [  0.54999793451138, -0.00000000005653 ]
      - [ -0.00000002119705,  0.00000000000000 ]
    - # atom 2
      - [  0.44441227784128,  0.00000000000000 ]
      - [  0.44441228064696, -0.00000000004568 ]
      - [ -0.00000006687650, -0.00000000000000 ]
  - # 5
    frequency:    9.5286576735
    eigenvector:
    - # atom 1
      - [  0.54999795967739, -0.00000000000000 ]
      - [ -0.54999795620512,  0.00000000005653 ]
      - [ -0.00000000000000,  0.00000000000000 ]
    - # atom 2
      - [  0.44441224950189,  0.00000000000000 ]
      - [ -0.44441224669621,  0.00000000004568 ]
      - [ -0.00000000000000,  0.00000000000000 ]
  - # 6
    frequency:   10.8138490912
    eigenvector:
    - # atom 1
      - [ -0.00000004519367,  0.00000000000000 ]
      - [ -0.00000004519367,  0.00000000000000 ]
      - [ -0.77817996248298,  0.00000000025359 ]
    - # atom 2
      - [ -0.00000000988212,  0.00000000000000 ]
      - [ -0.00000000988212,  0.00000000000000 ]
      - [ -0.62804135691051,  0.00000000020466 ]

- q-position: [    0.0600880,    0.0600880,    1.0000000 ]
  distance:    0.0212191
  band:
  - # 1
    frequency:    1.1159413747
    eigenvector:
    - # atom 1
      - [  0.44458204231153,  0.00000000000000 ]
      - [  0.44458204125436, -0.00000000000718 ]
      - [ -0.00000347234856,  0.00000000000000 ]
    - # atom 2
      - [ -0.54986071766219, -0.00000000000000 ]
      - [ -0.54986071635468,  0.00000000000888 ]
      - [  0.00000425449913, -0.00000000000000 ]
  - # 2
    frequency:    1.1159516620
    eigenvector:
    - # atom 1
      - [ -0.44458201079325,  0.00000000000000 ]
      - [  0.44458201185043, -0.00000000000718 ]