nqpoint: 404    
npath: 4      
segment_nqpoint:
- 101
- 101
- 101
- 101
labels:
- [ '$\Gamma$', 'X' ]
- [ 'X', 'K' ]
- [ 'K', '$\Gamma$' ]
- [ '$\Gamma$', 'L' ]
reciprocal_lattice:
- [  -0.17686126,   0.17686126,   0.17686126 ] # a*
- [   0.17686126,  -0.17686126,   0.17686126 ] # b*
- [   0.17686126,   0.17686126,  -0.17686126 ] # c*
natom: 2      
lattice:
- [     0.000000000000000,     2.827074733835000,     2.827074733835000 ] # a
- [     2.827074733835000,     0.000000000000000,     2.827074733835000 ] # b
- [     2.827074733835000,     2.827074733835000,     0.000000000000000 ] # c
points:
- symbol: Na # 1
  coordinates: [  0.000000000000000,  0.000000000000000,  0.000000000000000 ]
  mass: 22.989769
- symbol: Cl # 2
  coordinates: [  0.500000000000000,  0.500000000000000,  0.500000000000000 ]
  mass: 35.453000
supercell_matrix:
- [   -9,    9,    9 ]
- [    9,   -9,    9 ]
- [    9,    9,   -9 ]

phonon:
- q-position: [    0.0001000,    0.0001000,    1.0000000 ]
  distance:    0.0000000
  band:
  - # 1
    frequency:   -0.0072345389
    eigenvector:
    - # atom 1
      - [ -0.38054259399040,  0.00000000000000 ]
      - [ -0.38054259440029,  0.00000000000000 ]
      - [  0.32209803634290, -0.00000000000008 ]
    - # atom 2
      - [  0.47256585454558,  0.00000000000000 ]
      - [  0.47256585505459, -0.00000000000000 ]
      - [ -0.39998818575596,  0.00000000000010 ]
  - # 2
    frequency:   -0.0031178285
    eigenvector:
    - # atom 1
      - [  0.44349316839102, -0.00000000000000 ]
      - [ -0.44349317080801, -0.00000000000003 ]
      - [ -0.00000000341992, -0.00000000000004 ]
    - # atom 2
      - [ -0.55073932750944, -0.00000000000000 ]
      - [  0.55073933051091,  0.00000000000004 ]
      - [  0.00000000424693,  0.00000000000005 ]
  - # 3
    frequency:   -0.0020715715
    eigenvector:
    - # atom 1
      - [ -0.22775768279651,  0.00000000000000 ]
      - [ -0.22775767740527, -0.00000000000007 ]
      - [ -0.53816842424868,  0.00000000000005 ]
    - # atom 2
      - [  0.28283438250816,  0.00000000000000 ]
      - [  0.28283437581319,  0.00000000000008 ]
      - [  0.66830910017850, -0.00000000000006 ]
  - # 4
    frequency:    9.5026404232
    eigenvector:
    - # atom 1
      - [  0.55073929369547,  0.00000000000000 ]
      - [  0.55073930011947, -0.00000000000001 ]
      - [ -0.00000001994533,  0.00000000000000 ]
    - # atom 2
      - [  0.44349320687881,  0.00000000000000 ]
      - [  0.44349321205186, -0.00000000000000 ]
      - [ -0.00000008177065, -0.00000000000000 ]
  - # 5
    frequency:    9.5026405922
    eigenvector:
    - # atom 1
      - [  0.55073933222218, -0.00000000000000 ]
      - [ -0.55073932579817,  0.00000000000001 ]
      - [ -0.00000000000000,  0.00000000000000 ]
    - # atom 2
      - [  0.44349317218604,  0.00000000000000 ]
      - [ -0.44349316701299,  0.00000000000000 ]
      - [ -0.00000000000000,  0.00000000000000 ]
  - # 6
    frequency:   11.1472600965
    eigenvector:
    - # atom 1
      - [ -0.00000005329486,  0.00000000000000 ]
      - [ -0.00000005329486,  0.00000000000000 ]
      - [ -0.77886301884589,  0.00000000009694 ]
    - # atom 2
      - [ -0.00000000915188,  0.00000000000000 ]
      - [ -0.00000000915188,  0.00000000000000 ]
      - [ -0.62719406715486,  0.00000000007806 ]

- q-position: [    0.0050990,    0.0050990,    1.0000000 ]
  distance:    0.0017683
  band:
  - # 1
    frequency:    0.0951807615
    eigenvector:
    - # atom 1
      - [  0.44350083990392,  0.00000000000000 ]
      - [  0.44350083896632, -0.00000000000048 ]
      - [ -0.00064274678870,  0.00000000000000 ]
    - # atom 2
      - [ -0.55073267654437, -0.00000000000000 ]
      - [ -0.55073267538007,  0.00000000000059 ]
      - [  0.00079810540555, -0.00000000000000 ]
  - # 2
    frequency:    0.0953345202
    eigenvector:
    - # atom 1
      - [  0.44350103282935,  0.00000000000000 ]
      - [ -0.44350103376694,  0.00000000000048 ]
      - [  0.00000000000104, -0.00000000000000 ]
    - # atom 2
      - [ -0.55073299594473, -0.00000000000000 ]
      - [  0.55073299710903, -0.00000000000059 ]
      - [ -0.00000000000129,  0.00000000000000 ]
  - # 3
    frequency:    0.1706958152
    eigenvector:
    - # atom 1
      - [ -0.00045444667301,  0.00000000000000 ]
      - [ -0.00045444667352, -0.00000000000000 ]
      - [ -0.62720024953917,  0.00000000000029 ]
    - # atom 2
      - [  0.00056438112811, -0.00000000000000 ]
      - [  0.00056438112874,  0.00000000000000 ]
      - [  0.77885736619893, -0.00000000000036 ]
  - # 4
    frequency:    9.5028651912
    eigenvector:
    - # atom 1
      - [  0.55073296496643,  0.00000000000000 ]
      - [  0.55073296532567, -0.00000000000160 ]
      - [ -0.00000001911171,  0.00000000000000 ]
    - # atom 2
      - [  0.44350107212174,  0.00000000000000 ]
      - [  0.44350107241103, -0.00000000000129 ]
      - [ -0.00000007925762, -0.00000000000000 ]
  - # 5
    frequency:    9.5028653584
    eigenvector:
    - # atom 1
      - [ -0.55073299670650,  0.00000000000000 ]
      - [  0.55073299634726, -0.00000000000160 ]
      - [ -0.00000000000000,  0.00000000000000 ]
    - # atom 2
      - [ -0.44350103344279, -0.00000000000000 ]
      - [  0.44350103315350, -0.00000000000129 ]
      - [ -0.00000000000000, -0.00000000000000 ]
  - # 6
    frequency:   11.1442858706
    eigenvector:
    - # atom 1
      - [  0.00000005161264,  0.00000000000000 ]
      - [  0.00000005161264, -0.00000000000000 ]
      - [  0.77885777511338, -0.00000000011383 ]
    - # atom 2
      - [  0.00000000873296, -0.00000000000000 ]
      - [  0.00000000873296, -0.00000000000000 ]
      - [  0.62720057887842, -0.00000000009166 ]

- q-position: [    0.0100980,    0.0100980,    1.0000000 ]
  distance:    0.0035365
  band:
  - # 1
    frequency:    0.1887952158
    eigenvector:
    - # atom 1
      - [  0.44352403381825,  0.00000000000000 ]
      - [  0.44352403489324, -0.00000000000085 ]
      - [ -0.00015942377498,  0.00000000000000 ]
    - # atom 2
      - [ -0.55071444317565, -0.00000000000000 ]
      - [ -0.55071444451045,  0.00000000000106 ]
      - [  0.00019790640188, -0.00000000000000 ]
  - # 2
    frequency:    0.1888710027
    eigenvector:
    - # atom 1
      - [ -0.44352401111504,  0.00000000000000 ]
      - [  0.44352401004005, -0.00000000000085 ]
      - [  0.00000000000028,  0.00000000000000 ]
    - # atom 2
      - [  0.55071449297826,  0.00000000000000 ]
      - [ -0.55071449164346,  0.00000000000106 ]
      - [ -0.00000000000035, -0.00000000000000 ]
  - # 3
    frequency:    0.3381337658
    eigenvector:
    - # atom 1
      - [ -0.00011268684412,  0.00000000000000 ]
      - [ -0.00011268684399, -0.00000000000000 ]
      - [ -0.62721965265841,  0.00000000000132 ]
    - # atom 2
      - [  0.00013997541826, -0.00000000000000 ]
      - [  0.00013997541810,  0.00000000000000 ]
      - [  0.77884237348528, -0.00000000000164 ]
  - # 4
    frequency:    9.5035218616
    eigenvector:
    - # atom 1
      - [  0.55071445895596,  0.00000000000000 ]
      - [  0.55071446430777, -0.00000000000330 ]
      - [ -0.00000001848681,  0.00000000000000 ]
    - # atom 2
      - [  0.44352404651594,  0.00000000000000 ]
      - [  0.44352405082608, -0.00000000000266 ]
      - [ -0.00000007700447, -0.00000000000000 ]
  - # 5
    frequency:    9.5035220272
    eigenvector:
    - # atom 1
      - [ -0.55071449498677,  0.00000000000000 ]
      - [  0.55071448963496, -0.00000000000330 ]
      - [ -0.00000000000000, -0.00000000000000 ]
    - # atom 2
      - [ -0.44352401273261, -0.00000000000000 ]
      - [  0.44352400842247, -0.00000000000266 ]
      - [  0.00000000000000,  0.00000000000000 ]
  - # 6
    frequency:   11.1356037389
    eigenvector:
    - # atom 1
      - [  0.00000005014316,  0.00000000000000 ]
      - [  0.00000005014316, -0.00000000000000 ]
      - [  0.77884239862961, -0.00000000014826 ]
    - # atom 2
      - [  0.00000000841883, -0.00000000000000 ]
      - [  0.00000000841883, -0.00000000000000 ]
      - [  0.62721967291920, -0.00000000011940 ]

- q-position: [    0.0150970,    0.0150970,    1.0000000 ]
  distance:    0.0053048
  band:
  - # 1
    frequency:    0.2822763814
    eigenvector:
    - # atom 1
      - [  0.44356210906063,  0.00000000000000 ]
      - [  0.44356210863986, -0.00000000000119 ]
      - [ -0.00006937902810,  0.00000000000000 ]
    - # atom 2
      - [ -0.55068380198408, -0.00000000000000 ]
      - [ -0.55068380146170,  0.00000000000148 ]
      - [  0.00008608863572, -0.00000000000000 ]
  - # 2
    frequency:    0.2823259415
    eigenvector:
    - # atom 1
      - [ -0.44356207410734,  0.00000000000000 ]
      - [  0.44356207452811, -0.00000000000119 ]
      - [ -0.00000000000008,  0.00000000000000 ]
    - # atom 2
      - [  0.55068383482657,  0.00000000000000 ]
      - [ -0.55068383534895,  0.00000000000148 ]
      - [  0.00000000000009, -0.00000000000000 ]
  - # 3
    frequency:    0.5054884855
    eigenvector:
    - # atom 1
      - [ -0.00004901668304,  0.00000000000000 ]
      - [ -0.00004901668310, -0.00000000000000 ]
      - [ -0.62725151281352,  0.00000000000066 ]
    - # atom 2
      - [  0.00006090744344, -0.00000000000000 ]
      - [  0.00006090744351,  0.00000000000000 ]
      - [  0.77881674831018, -0.00000000000082 ]
  - # 4
    frequency:    9.5046094593
    eigenvector:
    - # atom 1
      - [  0.55068379987209,  0.00000000000000 ]
      - [  0.55068381031025, -0.00000000000727 ]
      - [ -0.00000001805582,  0.00000000000000 ]
    - # atom 2
      - [  0.44356210735475,  0.00000000000000 ]
      - [  0.44356211576242, -0.00000000000585 ]
      - [ -0.00000007499443, -0.00000000000000 ]
  - # 5
    frequency:    9.5046096232
    eigenvector:
    - # atom 1
      - [ -0.55068384030684,  0.00000000000000 ]
      - [  0.55068382986868, -0.00000000000727 ]
      - [  0.00000000000000,  0.00000000000000 ]
    - # atom 2
      - [ -0.44356207852156, -0.00000000000000 ]
      - [  0.44356207011388, -0.00000000000585 ]
      - [  0.00000000000000,  0.00000000000000 ]
  - # 6
    frequency:   11.1212481700
    eigenvector:
    - # atom 1
      - [  0.00000004887215,  0.00000000000000 ]
      - [  0.00000004887215, -0.00000000000000 ]
      - [  0.77881675306820, -0.00000000017031 ]
    - # atom 2
      - [  0.00000000820216, -0.00000000000000 ]
      - [  0.00000000820216, -0.00000000000000 ]
      - [  0.62725151665046, -0.00000000013716 ]

- q-position: [    0.0200960,    0.0200960,    1.0000000 ]
  distance:    0.0070730
  band:
  - # 1
    frequency:    0.3756508385
    eigenvector:
    - # atom 1
      - [  0.44361521540587,  0.00000000000000 ]
      - [  0.44361521497580, -0.00000000000187 ]
      - [ -0.00003809921834,  0.00000000000000 ]
    - # atom 2
      - [ -0.55064102580834, -0.00000000000000 ]
      - [ -0.55064102527451,  0.00000000000232 ]
      - [  0.00004724629325, -0.00000000000000 ]
  - # 2
    frequency:    0.3756872542
    eigenvector:
    - # atom 1
      - [ -0.44361517938150,  0.00000000000000 ]
      - [  0.44361517981157, -0.00000000000187 ]
      - [ -0.00000000000000,  0.00000000000000 ]
    - # atom 2
      - [  0.55064105562298,  0.00000000000000 ]
      - [ -0.55064105615681,  0.00000000000232 ]
      - [  0.00000000000001, -0.00000000000000 ]
  - # 3
    frequency:    0.6727522913
    eigenvector:
    - # atom 1
      - [ -0.00002689953630,  0.00000000000000 ]
      - [ -0.00002689953629, -0.00000000000000 ]
      - [ -0.62729638838863,  0.00000000000233 ]
    - # atom 2
      - [  0.00003344094451, -0.00000000000000 ]
      - [  0.00003344094448,  0.00000000000000 ]
      - [  0.77878060930586, -0.00000000000290 ]
  - # 4
    frequency:    9.5061263699
    eigenvector:
    - # atom 1
      - [  0.55064102283926,  0.00000000000000 ]
      - [  0.55064103027448, -0.00000000000818 ]
      - [ -0.00000001780819,  0.00000000000000 ]
    - # atom 2
      - [  0.44361521301136,  0.00000000000000 ]
      - [  0.44361521900142, -0.00000000000659 ]
      - [ -0.00000007321457, -0.00000000000000 ]
  - # 5
    frequency:    9.5061265321
    eigenvector:
    - # atom 1
      - [ -0.55064105960750,  0.00000000000000 ]
      - [  0.55064105217229, -0.00000000000818 ]
      - [  0.00000000000000,  0.00000000000000 ]
    - # atom 2
      - [ -0.44361518259156, -0.00000000000000 ]
      - [  0.44361517660150, -0.00000000000659 ]
      - [  0.00000000000000,  0.00000000000000 ]
  - # 6
    frequency:   11.1012762246
    eigenvector:
    - # atom 1
      - [  0.00000004778868,  0.00000000000000 ]
      - [  0.00000004778868, -0.00000000000000 ]
      - [  0.77878061073901, -0.00000000023844 ]
    - # atom 2
      - [  0.00000000807805, -0.00000000000000 ]
      - [  0.00000000807805, -0.00000000000000 ]
      - [  0.62729638954562, -0.00000000019206 ]

- q-position: [    0.0250950,    0.0250950,    1.0000000 ]
  distance:    0.0088413
  band:
  - # 1
    frequency:    0.4689008627
    eigenvector:
    - # atom 1
      - [  0.44368329940420,  0.00000000000000 ]
      - [  0.44368329865890, -0.00000000000240 ]
      - [ -0.00002378197654,  0.00000000000000 ]
    - # atom 2
      - [ -0.55058616941649, -0.00000000000000 ]
      - [ -0.55058616849161,  0.00000000000298 ]
      - [  0.00002946830460, -0.00000000000000 ]
  - # 2
    frequency:    0.4689293929
    eigenvector:
    - # atom 1
      - [ -0.44368326337621,  0.00000000000000 ]
      - [  0.44368326412152, -0.00000000000240 ]
      - [  0.00000000000001,  0.00000000000000 ]
    - # atom 2
      - [  0.55058619757485,  0.00000000000000 ]
      - [ -0.55058619849973,  0.00000000000298 ]
      - [ -0.00000000000001, -0.00000000000000 ]
  - # 3
    frequency:    0.8399013885
    eigenvector:
    - # atom 1
      - [ -0.00001677666752,  0.00000000000000 ]
      - [ -0.00001677666748, -0.00000000000000 ]
      - [ -0.62735468569971,  0.00000000000158 ]
    - # atom 2
      - [  0.00002086924969, -0.00000000000000 ]
      - [  0.00002086924964,  0.00000000000000 ]
      - [  0.77873364952123, -0.00000000000196 ]
  - # 4
    frequency:    9.5080703441
    eigenvector:
    - # atom 1
      - [  0.55058616067445,  0.00000000000000 ]
      - [  0.55058617802467, -0.00000000000717 ]
      - [ -0.00000001773743,  0.00000000000000 ]
    - # atom 2
      - [  0.44368329235800,  0.00000000000000 ]
      - [  0.44368330633946, -0.00000000000578 ]
      - [ -0.00000007165552, -0.00000000000000 ]
  - # 5
    frequency:    9.5080705047
    eigenvector:
    - # atom 1
      - [ -0.55058620671240,  0.00000000000000 ]
      - [  0.55058618936218, -0.00000000000717 ]
      - [  0.00000000000000,  0.00000000000000 ]
    - # atom 2
      - [ -0.44368327073960, -0.00000000000000 ]
      - [  0.44368325675813, -0.00000000000578 ]
      - [  0.00000000000000, -0.00000000000000 ]
  - # 6
    frequency:   11.0757674300
    eigenvector:
    - # atom 1
      - [  0.00000004688488,  0.00000000000000 ]
      - [  0.00000004688488, -0.00000000000000 ]
      - [  0.77873365007879, -0.00000000019653 ]
    - # atom 2
      - [  0.00000000804384, -0.00000000000000 ]
      - [  0.00000000804384, -0.00000000000000 ]
      - [  0.62735468615048, -0.00000000015832 ]

- q-position: [    0.0300940,    0.0300940,    1.0000000 ]
  distance:    0.0106096
  band:
  - # 1
    frequency:    0.5620013209
    eigenvector:
    - # atom 1
      - [  0.44376628118326,  0.00000000000000 ]
      - [  0.44376628104592, -0.00000000000313 ]
      - [ -0.00001610334851,  0.00000000000000 ]
    - # atom 2
      - [ -0.55051928895469, -0.00000000000000 ]
      - [ -0.55051928878431,  0.00000000000389 ]
      - [  0.00001993416976, -0.00000000000000 ]
  - # 2
    frequency:    0.5620246023
    eigenvector:
    - # atom 1
      - [ -0.44376624638068,  0.00000000000000 ]
      - [  0.44376624651802, -0.00000000000313 ]
      - [  0.00000000000000,  0.00000000000000 ]
    - # atom 2
      - [  0.55051931702571,  0.00000000000000 ]
      - [ -0.55051931719609,  0.00000000000389 ]
      - [ -0.00000000000001, -0.00000000000000 ]
  - # 3
    frequency:    1.0069091996
    eigenvector:
    - # atom 1
      - [ -0.00001134794221,  0.00000000000000 ]
      - [ -0.00001134794220, -0.00000000000000 ]
      - [ -0.62742692009273,  0.00000000000521 ]
    - # atom 2
      - [  0.00001412689356, -0.00000000000000 ]
      - [  0.00001412689354,  0.00000000000000 ]
      - [  0.77867545183231, -0.00000000000646 ]
  - # 4
    frequency:    9.5104385034
    eigenvector:
    - # atom 1
      - [  0.55051929829393,  0.00000000000000 ]
      - [  0.55051927980758, -0.00000000000537 ]
      - [ -0.00000001784105,  0.00000000000000 ]
    - # atom 2
      - [  0.44376628871048,  0.00000000000000 ]
      - [  0.44376627380889, -0.00000000000433 ]
      - [ -0.00000007031149, -0.00000000000000 ]
  - # 5
    frequency:    9.5104386624
    eigenvector:
    - # atom 1
      - [ -0.55051930786773,  0.00000000000000 ]
      - [  0.55051932635407, -0.00000000000537 ]
      - [ -0.00000000000000,  0.00000000000000 ]
    - # atom 2
      - [ -0.44376623899855, -0.00000000000000 ]
      - [  0.44376625390015, -0.00000000000433 ]
      - [ -0.00000000000000, -0.00000000000000 ]
  - # 6
    frequency:   11.0448236017
    eigenvector:
    - # atom 1
      - [  0.00000004615594,  0.00000000000000 ]
      - [  0.00000004615594, -0.00000000000000 ]
      - [  0.77867545208747, -0.00000000019326 ]
    - # atom 2
      - [  0.00000000809913, -0.00000000000000 ]
      - [  0.00000000809913, -0.00000000000000 ]
      - [  0.62742692029938, -0.00000000015572 ]

- q-position: [    0.0350930,    0.0350930,    1.0000000 ]
  distance:    0.0123778
  band:
  - # 1
    frequency:    0.6549250297
    eigenvector:
    - # atom 1
      - [  0.44386406359459,  0.00000000000000 ]
      - [  0.44386406397536, -0.00000000000323 ]
      - [ -0.00001153605972,  0.00000000000000 ]
    - # atom 2
      - [ -0.55044045313922, -0.00000000000000 ]
      - [ -0.55044045361141,  0.00000000000401 ]
      - [  0.00001426365064, -0.00000000000000 ]
  - # 2
    frequency:    0.6549445714
    eigenvector:
    - # atom 1
      - [ -0.44386403000889,  0.00000000000000 ]
      - [  0.44386402962813, -0.00000000000323 ]
      - [  0.00000000000001,  0.00000000000000 ]
    - # atom 2
      - [  0.55044048115412,  0.00000000000000 ]
      - [ -0.55044048068194,  0.00000000000401 ]
      - [ -0.00000000000002, -0.00000000000000 ]
  - # 3
    frequency:    1.1737482911
    eigenvector:
    - # atom 1
      - [ -0.00000811920425,  0.00000000000000 ]
      - [ -0.00000811920424, -0.00000000000000 ]
      - [ -0.62751373053559,  0.00000000000245 ]
    - # atom 2
      - [  0.00001011657720, -0.00000000000000 ]
      - [  0.00001011657718,  0.00000000000000 ]
      - [  0.77860549551925, -0.00000000000304 ]
  - # 4
    frequency:    9.5132273466
    eigenvector:
    - # atom 1
      - [  0.55044045721233,  0.00000000000000 ]
      - [  0.55044044972422, -0.00000000001507 ]
      - [ -0.00000001812061,  0.00000000000000 ]
    - # atom 2
      - [  0.44386406687836,  0.00000000000000 ]
      - [  0.44386406084011, -0.00000000001215 ]
      - [ -0.00000006918026, -0.00000000000000 ]
  - # 5
    frequency:    9.5132275040
    eigenvector:
    - # atom 1
      - [ -0.55044047717398,  0.00000000000000 ]
      - [  0.55044048466208, -0.00000000001507 ]
      - [ -0.00000000000000,  0.00000000000000 ]
    - # atom 2
      - [ -0.44386402679938, -0.00000000000000 ]
      - [  0.44386403283764, -0.00000000001215 ]
      - [ -0.00000000000000, -0.00000000000000 ]
  - # 6
    frequency:   11.0085686115
    eigenvector:
    - # atom 1
      - [  0.00000004560015,  0.00000000000000 ]
      - [  0.00000004560015, -0.00000000000000 ]
      - [  0.77860549564990, -0.00000000018455 ]
    - # atom 2
      - [  0.00000000824582, -0.00000000000000 ]
      - [  0.00000000824582, -0.00000000000000 ]
      - [  0.62751373064163, -0.00000000014874 ]

- q-position: [    0.0400920,    0.0400920,    1.0000000 ]
  distance:    0.0141461
  band:
  - # 1
    frequency:    0.7476441187
    eigenvector:
    - # atom 1
      - [  0.44397653160369,  0.00000000000000 ]
      - [  0.44397653199956, -0.00000000000391 ]
      - [ -0.00000861341977,  0.00000000000000 ]
    - # atom 2
      - [ -0.55034974229638, -0.00000000000000 ]
      - [ -0.55034974278709,  0.00000000000484 ]
      - [  0.00001063538621, -0.00000000000000 ]
  - # 2
    frequency:    0.7476608650
    eigenvector:
    - # atom 1
      - [  0.44397649875031,  0.00000000000000 ]
      - [ -0.44397649835444,  0.00000000000391 ]
      - [  0.00000000000000, -0.00000000000000 ]
    - # atom 2
      - [ -0.55034976969491, -0.00000000000000 ]
      - [  0.55034976920420, -0.00000000000484 ]
      - [ -0.00000000000000,  0.00000000000000 ]
  - # 3
    frequency:    1.3403908475
    eigenvector:
    - # atom 1
      - [  0.00000605335025,  0.00000000000000 ]
      - [  0.00000605335026,  0.00000000000000 ]
      - [  0.62761588750687, -0.00000000000755 ]
    - # atom 2
      - [ -0.00000755040108,  0.00000000000000 ]
      - [ -0.00000755040108, -0.00000000000000 ]
      - [ -0.77852315159002,  0.00000000000936 ]
  - # 4
    frequency:    9.5164327587
    eigenvector:
    - # atom 1
      - [  0.55034973345335,  0.00000000000000 ]
      - [  0.55034975173370, -0.00000000001252 ]
      - [ -0.00000001858220,  0.00000000000000 ]
    - # atom 2
      - [  0.44397652446936,  0.00000000000000 ]
      - [  0.44397653921642, -0.00000000001010 ]
      - [ -0.00000006826353, -0.00000000000000 ]
  - # 5
    frequency:    9.5164329146
    eigenvector:
    - # atom 1
      - [  0.55034977858973, -0.00000000000000 ]
      - [ -0.55034976030938,  0.00000000001252 ]
      - [ -0.00000000000000,  0.00000000000000 ]
    - # atom 2
      - [  0.44397650592591,  0.00000000000000 ]
      - [ -0.44397649117884,  0.00000000001010 ]
      - [ -0.00000000000000,  0.00000000000000 ]
  - # 6
    frequency:   10.9671481001
    eigenvector:
    - # atom 1
      - [ -0.00000004521915,  0.00000000000000 ]
      - [ -0.00000004521914,  0.00000000000000 ]
      - [ -0.77852315166267,  0.00000000022300 ]
    - # atom 2
      - [ -0.00000000848835,  0.00000000000000 ]
      - [ -0.00000000848835,  0.00000000000000 ]
      - [ -0.62761588756597,  0.00000000017978 ]

- q-position: [    0.0450910,    0.0450910,    1.0000000 ]
  distance:    0.0159143
  band:
  - # 1
    frequency:    0.8401305001
    eigenvector:
    - # atom 1
      - [  0.44410355278749,  0.00000000000000 ]
      - [  0.44410355243314, -0.00000000000478 ]
      - [ -0.00000663857950,  0.00000000000000 ]
    - # atom 2
      - [ -0.55024724873910, -0.00000000000000 ]
      - [ -0.55024724830006,  0.00000000000592 ]
      - [  0.00000818402031, -0.00000000000000 ]
  - # 2
    frequency:    0.8401450805
    eigenvector:
    - # atom 1
      - [  0.44410351989836,  0.00000000000000 ]
      - [ -0.44410352025271,  0.00000000000478 ]
      - [ -0.00000000000000, -0.00000000000000 ]
    - # atom 2
      - [ -0.55024727460928, -0.00000000000000 ]
      - [  0.55024727504832, -0.00000000000592 ]
      - [  0.00000000000000,  0.00000000000000 ]
  - # 3
    frequency:    1.5068088199
    eigenvector:
    - # atom 1
      - [  0.00000465763667,  0.00000000000000 ]
      - [  0.00000465763666,  0.00000000000000 ]
      - [  0.62773430160024, -0.00000000000620 ]
    - # atom 2
      - [ -0.00000581646344,  0.00000000000000 ]
      - [ -0.00000581646343, -0.00000000000000 ]
      - [ -0.77842767582056,  0.00000000000768 ]
  - # 4
    frequency:    9.5200500212
    eigenvector:
    - # atom 1
      - [  0.55024725296208,  0.00000000000000 ]
      - [  0.55024724413856, -0.00000000001133 ]
      - [ -0.00000001923694,  0.00000000000000 ]
    - # atom 2
      - [  0.44410355619546,  0.00000000000000 ]
      - [  0.44410354907402, -0.00000000000914 ]
      - [ -0.00000006756738, -0.00000000000000 ]
  - # 5
    frequency:    9.5200501755
    eigenvector:
    - # atom 1
      - [  0.55024727041704, -0.00000000000000 ]
      - [ -0.55024727924056,  0.00000000001133 ]
      - [  0.00000000000000, -0.00000000000000 ]
    - # atom 2
      - [  0.44410351651481,  0.00000000000000 ]
      - [ -0.44410352363626,  0.00000000000914 ]
      - [  0.00000000000000, -0.00000000000000 ]
  - # 6
    frequency:   10.9207291288
    eigenvector:
    - # atom 1
      - [ -0.00000004501834,  0.00000000000000 ]
      - [ -0.00000004501834,  0.00000000000000 ]
      - [ -0.77842767586359,  0.00000000024195 ]
    - # atom 2
      - [ -0.00000000883409,  0.00000000000000 ]
      - [ -0.00000000883409,  0.00000000000000 ]
      - [ -0.62773430163534,  0.00000000019511 ]

- q-position: [    0.0500900,    0.0500900,    1.0000000 ]
  distance:    0.0176826
  band:
  - # 1
    frequency:    0.9323560683
    eigenvector:
    - # atom 1
      - [  0.44424497694210,  0.00000000000000 ]
      - [  0.44424497615530, -0.00000000000548 ]
      - [ -0.00000524673567,  0.00000000000000 ]
    - # atom 2
      - [ -0.55013307600311, -0.00000000000000 ]
      - [ -0.55013307502878,  0.00000000000679 ]
      - [  0.00000645653816, -0.00000000000000 ]
  - # 2
    frequency:    0.9323689237
    eigenvector:
    - # atom 1
      - [  0.44424494432419,  0.00000000000000 ]
      - [ -0.44424494511099,  0.00000000000548 ]
      - [  0.00000000000001, -0.00000000000000 ]
    - # atom 2
      - [ -0.55013310076458, -0.00000000000000 ]
      - [  0.55013310173891, -0.00000000000679 ]
      - [ -0.00000000000001,  0.00000000000000 ]
  - # 3
    frequency:    1.6729739755
    eigenvector:
    - # atom 1
      - [  0.00000367411160,  0.00000000000000 ]
      - [  0.00000367411160,  0.00000000000000 ]
      - [  0.62787003364931, -0.00000000000593 ]
    - # atom 2
      - [ -0.00000459443201,  0.00000000000000 ]
      - [ -0.00000459443201, -0.00000000000000 ]
      - [ -0.77831820020863,  0.00000000000736 ]
  - # 4
    frequency:    9.5240738230
    eigenvector:
    - # atom 1
      - [  0.55013307616401,  0.00000000000000 ]
      - [  0.55013307490626, -0.00000000000789 ]
      - [ -0.00000002010211,  0.00000000000000 ]
    - # atom 2
      - [  0.44424497707172,  0.00000000000000 ]
      - [  0.44424497605606, -0.00000000000637 ]
      - [ -0.00000006710310, -0.00000000000000 ]
  - # 5
    frequency:    9.5240739758
    eigenvector:
    - # atom 1
      - [  0.55013310062287, -0.00000000000000 ]
      - [ -0.55013310188062,  0.00000000000789 ]
      - [ -0.00000000000000,  0.00000000000000 ]
    - # atom 2
      - [  0.44424494420976,  0.00000000000000 ]
      - [ -0.44424494522542,  0.00000000000637 ]
      - [ -0.00000000000000,  0.00000000000000 ]
  - # 6
    frequency:   10.8694997689
    eigenvector:
    - # atom 1
      - [ -0.00000004500759,  0.00000000000000 ]
      - [ -0.00000004500759,  0.00000000000000 ]
      - [ -0.77831820023541,  0.00000000025039 ]
    - # atom 2
      - [ -0.00000000929390,  0.00000000000000 ]
      - [ -0.00000000929390,  0.00000000000000 ]
      - [ -0.62787003367123,  0.00000000020199 ]

- q-position: [    0.0550890,    0.0550890,    1.0000000 ]
  distance:    0.0194508
  band:
  - # 1
    frequency:    1.0242928016
    eigenvector:
    - # atom 1
      - [  0.44440063681788,  0.00000000000000 ]
      - [  0.44440063729101, -0.00000000000549 ]
      - [ -0.00000423225430,  0.00000000000000 ]
    - # atom 2
      - [ -0.55000733944292, -0.00000000000000 ]
      - [ -0.55000734002848,  0.00000000000679 ]
      - [  0.00000519758435, -0.00000000000000 ]
  - # 2
    frequency:    1.0243042527
    eigenvector:
    - # atom 1
      - [ -0.44440060614951,  0.00000000000000 ]
      - [  0.44440060567639, -0.00000000000549 ]
      - [  0.00000000000000,  0.00000000000000 ]
    - # atom 2
      - [  0.55000736521093,  0.00000000000000 ]
      - [ -0.55000736462537,  0.00000000000679 ]
      - [ -0.00000000000000, -0.00000000000000 ]
  - # 3
    frequency:    1.8388579117
    eigenvector:
    - # atom 1
      - [  0.00000295737265,  0.00000000000000 ]
      - [  0.00000295737265,  0.00000000000000 ]
      - [  0.62802430664428, -0.00000000000553 ]
    - # atom 2
      - [ -0.00000370374104,  0.00000000000000 ]
      - [ -0.00000370374104, -0.00000000000000 ]
      - [ -0.77819372280881,  0.00000000000685 ]
  - # 4
    frequency:    9.5284982737
    eigenvector:
    - # atom 1
      - [  0.55000734542957,  0.00000000000000 ]
      - [  0.55000733406676, -0.00000000001580 ]
      - [ -0.00000002120257,  0.00000000000000 ]
    - # atom 2
      - [  0.44440064165480,  0.00000000000000 ]
      - [  0.44440063247376, -0.00000000001277 ]
      - [ -0.00000006688842, -0.00000000000000 ]
  - # 5
    frequency:    9.5284984250
    eigenvector:
    - # atom 1
      - [  0.55000735923674, -0.00000000000000 ]
      - [ -0.55000737059955,  0.00000000001580 ]
      - [ -0.00000000000000,  0.00000000000000 ]
    - # atom 2
      - [  0.44440060132243,  0.00000000000000 ]
      - [ -0.44440061050347,  0.00000000001277 ]
      - [  0.00000000000000,  0.00000000000000 ]
  - # 6
    frequency:   10.8136686241
    eigenvector:
    - # atom 1
      - [ -0.00000004520233,  0.00000000000000 ]
      - [ -0.00000004520233,  0.00000000000000 ]
      - [ -0.77819372282617,  0.00000000027132 ]
    - # atom 2
      - [ -0.00000000988302,  0.00000000000000 ]
      - [ -0.00000000988302,  0.00000000000000 ]
      - [ -0.62802430665854,  0.00000000021896 ]

- q-position: [    0.0600880,    0.0600880,    1.0000000 ]
  distance:    0.0212191
  band:
  - # 1
    frequency:    1.1159128228
    eigenvector:
    - # atom 1
      - [  0.44457035038007,  0.00000000000000 ]
      - [  0.44457035140225, -0.00000000000479 ]
      - [ -0.00000347225711,  0.00000000000000 ]
    - # atom 2
      - [ -0.54987016867461, -0.00000000000000 ]
      - [ -0.54987016993889,  0.00000000000593 ]
      - [  0.00000425457100, -0.00000000000000 ]
  - # 2
    frequency:    1.1159231098
    eigenvector:
    - # atom 1
      - [ -0.44457032093500,  0.00000000000000 ]