 1046

    1
0.0000000000e+00 0.0000000000e+00 0.0000000000e+00
0.0000000000e+00 0.0000000000e+00 0.0000000000e+00
     1      1      1
 1  1  1     0.0000000000e+00
 1  1  2     0.0000000000e+00
 1  1  3     0.0000000000e+00
 1  2  1     0.0000000000e+00
 1  2  2     0.0000000000e+00
 1  2  3     0.0000000000e+00
 1  3  1     0.0000000000e+00
 1  3  2     0.0000000000e+00
 1  3  3     0.0000000000e+00
 2  1  1     0.0000000000e+00
 2  1  2     0.0000000000e+00
 2  1  3     0.0000000000e+00
 2  2  1     0.0000000000e+00
 2  2  2     0.0000000000e+00
 2  2  3     0.0000000000e+00
 2  3  1     0.0000000000e+00
 2  3  2     0.0000000000e+00
 2  3  3     0.0000000000e+00
 3  1  1     0.0000000000e+00
 3  1  2     0.0000000000e+00
 3  1  3     0.0000000000e+00
 3  2  1     0.0000000000e+00
 3  2  2     0.0000000000e+00
 3  2  3     0.0000000000e+00
 3  3  1     0.0000000000e+00
 3  3  2     0.0000000000e+00
 3  3  3     0.0000000000e+00

    2
0.0000000000e+00 0.0000000000e+00 0.0000000000e+00
0.0000000000e+00 0.0000000000e+00 0.0000000000e+00
     1      1      2
 1  1  1     7.3304139442e-03
 1  1  2     6.4997487208e-03
 1  1  3     4.5960163965e-03
 1  2  1     6.5955038384e-03
 1  2  2     2.4987555575e-03
 1  2  3     3.5374904642e-03
 1  3  1     4.6637254895e-03
 1  3  2     3.5374904642e-03
 1  3  3    -2.6279380812e-06
 2  1  1     6.5955038384e-03
 2  1  2     2.4987555575e-03
 2  1  3     3.5374904642e-03
 2  2  1     2.3329028288e-03
 2  2  2    -9.2063018084e-04
 2  2  3     5.1127425290e-04
 2  3  1     3.5374904642e-03
 2  3  2     5.7898334588e-04
 2  3  3    -1.5172407586e-06
 3  1  1     4.6637254895e-03
 3  1  2     3.5374904642e-03
 3  1  3    -2.6279380812e-06
 3  2  1     3.5374904642e-03
 3  2  2     5.7898334588e-04
 3  2  3    -1.5172407586e-06
 3  3  1    -1.6848066684e-04
 3  3  2    -9.7272358352e-05
 3  3  3    -1.2310400409e-03

    3
0.0000000000e+00 0.0000000000e+00 0.0000000000e+00
3.9980874304e+00 -3.8090000000e-13 -2.6930000000e-13
     1      1      1
 1  1  1    -1.0423725340e+00
 1  1  2     0.0000000000e+00
 1  1  3     0.0000000000e+00
 1  2  1     0.0000000000e+00
 1  2  2     1.0673615481e-01
 1  2  3     1.3332603028e-04
 1  3  1     0.0000000000e+00
 1  3  2     1.3332603028e-04
 1  3  3     1.0664187907e-01
 2  1  1     0.0000000000e+00
 2  1  2     1.0673615481e-01
 2  1  3     1.3332603028e-04
 2  2  1     1.0695098314e-01
 2  2  2     0.0000000000e+00
 2  2  3     0.0000000000e+00
 2  3  1     5.4632321588e-04
 2  3  2     0.0000000000e+00
 2  3  3     0.0000000000e+00
 3  1  1     0.0000000000e+00
 3  1  2     1.3332603028e-04
 3  1  3     1.0664187907e-01
 3  2  1     5.4632321588e-04
 3  2  2     0.0000000000e+00
 3  2  3     0.0000000000e+00
 3  3  1     1.0656467428e-01
 3  3  2     0.0000000000e+00
 3  3  3     0.0000000000e+00

    4
0.0000000000e+00 0.0000000000e+00 0.0000000000e+00
-7.9961748609e+00 7.6180000000e-13 5.3860000000e-13
     1      1      2
 1  1  1    -7.3304139434e-03
 1  1  2     6.4997487206e-03
 1  1  3     4.5960163963e-03
 1  2  1     6.5955038382e-03
 1  2  2    -2.4987555575e-03
 1  2  3    -3.5374904642e-03
 1  3  1     4.6637254893e-03
 1  3  2    -3.5374904642e-03
 1  3  3     2.6279380732e-06
 2  1  1     6.5955038382e-03
 2  1  2    -2.4987555575e-03
 2  1  3    -3.5374904642e-03
 2  2  1    -2.3329028287e-03
 2  2  2    -9.2063018079e-04
 2  2  3     5.1127425290e-04
 2  3  1    -3.5374904642e-03
 2  3  2     5.7898334588e-04
 2  3  3    -1.5172407290e-06
 3  1  1     4.6637254893e-03
 3  1  2    -3.5374904642e-03
 3  1  3     2.6279380732e-06
 3  2  1    -3.5374904642e-03
 3  2  2     5.7898334588e-04
 3  2  3    -1.5172407291e-06
 3  3  1     1.6848066682e-04
 3  3  2    -9.7272358318e-05
 3  3  3    -1.2310400409e-03

    5
0.0000000000e+00 0.0000000000e+00 0.0000000000e+00
-3.9980874304e+00 3.8090000000e-13 2.6930000000e-13
     1      1      1
 1  1  1     1.0423725340e+00
 1  1  2     0.0000000000e+00
 1  1  3     0.0000000000e+00
 1  2  1     0.0000000000e+00
 1  2  2    -1.0673615481e-01
 1  2  3    -1.3332603028e-04
 1  3  1     0.0000000000e+00
 1  3  2    -1.3332603028e-04
 1  3  3    -1.0664187907e-01
 2  1  1     0.0000000000e+00
 2  1  2    -1.0673615481e-01
 2  1  3    -1.3332603028e-04
 2  2  1    -1.0695098314e-01
 2  2  2     0.0000000000e+00
 2  2  3     0.0000000000e+00
 2  3  1    -5.4632321588e-04
 2  3  2     0.0000000000e+00
 2  3  3     0.0000000000e+00
 3  1  1     0.0000000000e+00
 3  1  2    -1.3332603028e-04
 3  1  3    -1.0664187907e-01
 3  2  1    -5.4632321588e-04
 3  2  2     0.0000000000e+00
 3  2  3     0.0000000000e+00
 3  3  1    -1.0656467428e-01
 3  3  2     0.0000000000e+00
 3  3  3     0.0000000000e+00

    6
0.0000000000e+00 0.0000000000e+00 0.0000000000e+00
-3.9980874304e+00 3.8090000000e-13 2.6930000000e-13
     1      1      2
 1  1  1     0.0000000000e+00
 1  1  2     5.2550484149e-01
 1  1  3     3.7158803696e-01
 1  2  1     5.2641918018e-01
 1  2  2     0.0000000000e+00
 1  2  3     0.0000000000e+00
 1  3  1     3.7223457205e-01
 1  3  2     0.0000000000e+00
 1  3  3     0.0000000000e+00
 2  1  1     5.2641918018e-01
 2  1  2     0.0000000000e+00
 2  1  3     0.0000000000e+00
 2  2  1     0.0000000000e+00
 2  2  2    -8.0236959826e+00
 2  2  3    -6.4180789836e+00
 2  3  1     0.0000000000e+00
 2  3  2    -6.4174324485e+00
 2  3  3    -4.2746004121e+00
 3  1  1     3.7223457205e-01
 3  1  2     0.0000000000e+00
 3  1  3     0.0000000000e+00
 3  2  1     0.0000000000e+00
 3  2  2    -6.4174324485e+00
 3  2  3    -4.2746004121e+00
 3  3  1     0.0000000000e+00
 3  3  2    -4.2755147507e+00
 3  3  3    -2.2787763292e+00

    7
0.0000000000e+00 0.0000000000e+00 0.0000000000e+00
1.9990437153e+00 3.4624452813e+00 9.8600000000e-14
     1      1      1
 1  1  1    -1.0137831984e-02
 1  1  2    -2.0243168321e-01
 1  1  3     1.1546373066e-04
 1  2  1    -2.0261772999e-01
 1  2  2    -4.5768035766e-01
 1  2  3     6.6663015135e-05
 1  3  1     2.9429675788e-04
 1  3  2     3.7641090432e-04
 1  3  3     5.3320939535e-02
 2  1  1    -2.0261772999e-01
 2  1  2    -4.5768035766e-01
 2  1  3     6.6663015135e-05
 2  2  1    -4.5757294350e-01
 2  2  2    -6.0766714316e-01
 2  2  3    -1.1546373360e-04
 2  3  1    -3.6586281282e-05
 2  3  2    -2.9429676081e-04
 2  3  3     9.2354576381e-02
 3  1  1     2.9429675788e-04
 3  1  2     3.7641090432e-04
 3  1  3     5.3320939535e-02
 3  2  1    -3.6586281282e-05
 3  2  2    -2.9429676081e-04
 3  2  3     9.2354576381e-02
 3  3  1     5.3282337143e-02
 3  3  2     9.2287715077e-02
 3  3  3     0.0000000000e+00

    8
0.0000000000e+00 0.0000000000e+00 0.0000000000e+00
-1.9990437152e+00 3.4624452813e+00 3.6790000000e-13
     1      1      1
 1  1  1     1.0137831967e-02
 1  1  2    -2.0243168318e-01
 1  1  3     1.1546372852e-04
 1  2  1    -2.0261772997e-01
 1  2  2     4.5768035764e-01
 1  2  3    -6.6663013275e-05
 1  3  1     2.9429675574e-04
 1  3  2    -3.7641090247e-04
 1  3  3    -5.3320939533e-02
 2  1  1    -2.0261772997e-01
 2  1  2     4.5768035764e-01
 2  1  3    -6.6663013275e-05
 2  2  1     4.5757294348e-01
 2  2  2    -6.0766714316e-01
 2  2  3    -1.1546373361e-04
 2  3  1     3.6586283132e-05
 2  3  2    -2.9429676082e-04
 2  3  3     9.2354576381e-02
 3  1  1     2.9429675574e-04
 3  1  2    -3.7641090247e-04
 3  1  3    -5.3320939533e-02
 3  2  1     3.6586283132e-05
 3  2  2    -2.9429676082e-04
 3  2  3     9.2354576381e-02
 3  3  1    -5.3282337141e-02
 3  3  2     9.2287715077e-02
 3  3  3     0.0000000000e+00

    9
0.0000000000e+00 0.0000000000e+00 0.0000000000e+00
-3.9980874305e+00 -6.9248905627e+00 -1.9720000000e-13
     1      1      2
 1  1  1     5.4726993612e-14
 1  1  2     2.4590424922e-03
 1  1  3    -1.5310968188e-03
 1  2  1     2.2675322570e-03
 1  2  2    -1.2861498630e-13
 1  2  3     9.6984844176e-14
 1  3  1    -1.4633877259e-03
 1  3  2     9.6271207325e-14
 1  3  3    -1.2451960222e-14
 2  1  1     2.2675322570e-03
 2  1  2    -1.2714923212e-13
 2  1  3     9.6253155375e-14
 2  2  1    -1.2549832149e-13
 2  2  2    -1.3617279573e-02
 2  2  3     6.6383874683e-03
 2  3  1     9.4372725443e-14
 2  3  2     6.7060965613e-03
 2  3  3     3.0344815645e-06
 3  1  1    -1.4633877259e-03
 3  1  2     9.6004879189e-14
 3  1  3    -1.2440831584e-14
 3  2  1     9.5264016664e-14
 3  2  2     6.7060965613e-03
 3  2  3     3.0344815645e-06
 3  3  1    -9.7076341733e-15
 3  3  2     1.9454471675e-04
 3  3  3    -1.2310400409e-03

   10
0.0000000000e+00 0.0000000000e+00 0.0000000000e+00
-1.9990437153e+00 -3.4624452813e+00 -9.8600000000e-14
     1      1      1
 1  1  1     1.0137831984e-02
 1  1  2     2.0243168321e-01
 1  1  3    -1.1546373066e-04
 1  2  1     2.0261772999e-01
 1  2  2     4.5768035766e-01
 1  2  3    -6.6663015135e-05
 1  3  1    -2.9429675788e-04
 1  3  2    -3.7641090432e-04
 1  3  3    -5.3320939535e-02
 2  1  1     2.0261772999e-01
 2  1  2     4.5768035766e-01
 2  1  3    -6.6663015135e-05
 2  2  1     4.5757294350e-01
 2  2  2     6.0766714316e-01
 2  2  3     1.1546373360e-04
 2  3  1     3.6586281282e-05
 2  3  2     2.9429676081e-04
 2  3  3    -9.2354576381e-02
 3  1  1    -2.9429675788e-04
 3  1  2    -3.7641090432e-04
 3  1  3    -5.3320939535e-02
 3  2  1     3.6586281282e-05
 3  2  2     2.9429676081e-04
 3  2  3    -9.2354576381e-02
 3  3  1    -5.3282337143e-02
 3  3  2    -9.2287715077e-02
 3  3  3     0.0000000000e+00

   11
0.0000000000e+00 0.0000000000e+00 0.0000000000e+00
-1.9990437153e+00 -3.4624452813e+00 -9.8600000000e-14
     1      1      2
 1  1  1    -4.8698220875e+00
 1  1  2     3.3380122735e+00
 1  1  3    -4.7206622283e+00
 1  2  1     3.3375551042e+00
 1  2  2    -1.6230100826e+00
 1  2  3     2.9400120616e+00
 1  3  1    -4.7200156932e+00
 1  3  2     2.9400120616e+00
 1  3  3    -3.7019125478e+00
 2  1  1     3.3375551042e+00
 2  1  2    -1.6230100826e+00
 2  1  3     2.9400120616e+00
 2  2  1    -1.6238019231e+00
 2  2  2     4.1108329727e-01
 2  2  3    -1.3258287184e+00
 2  3  1     2.9400120616e+00
 2  3  2    -1.3251821833e+00
 2  3  3     2.1373002061e+00
 3  1  1    -4.7200156932e+00
 3  1  2     2.9400120616e+00
 3  1  3    -3.7019125478e+00
 3  2  1     2.9400120616e+00
 3  2  2    -1.3251821833e+00
 3  2  3     2.1373002061e+00
 3  3  1    -3.7027043883e+00
 3  3  2     2.1377573755e+00
 3  3  3    -2.2787763292e+00

   12
0.0000000000e+00 0.0000000000e+00 0.0000000000e+00
1.9990437152e+00 -3.4624452813e+00 -3.6790000000e-13
     1      1      1
 1  1  1    -1.0137831967e-02
 1  1  2     2.0243168318e-01
 1  1  3    -1.1546372852e-04
 1  2  1     2.0261772997e-01
 1  2  2    -4.5768035764e-01
 1  2  3     6.6663013275e-05
 1  3  1    -2.9429675574e-04
 1  3  2     3.7641090247e-04
 1  3  3     5.3320939533e-02
 2  1  1     2.0261772997e-01
 2  1  2    -4.5768035764e-01
 2  1  3     6.6663013275e-05
 2  2  1    -4.5757294348e-01
 2  2  2     6.0766714316e-01
 2  2  3     1.1546373361e-04
 2  3  1    -3.6586283132e-05
 2  3  2     2.9429676082e-04
 2  3  3    -9.2354576381e-02
 3  1  1    -2.9429675574e-04
 3  1  2     3.7641090247e-04
 3  1  3     5.3320939533e-02
 3  2  1    -3.6586283132e-05
 3  2  2     2.9429676082e-04
 3  2  3    -9.2354576381e-02
 3  3  1     5.3282337141e-02
 3  3  2    -9.2287715077e-02
 3  3  3     0.0000000000e+00

   13
0.0000000000e+00 0.0000000000e+00 0.0000000000e+00
-5.9971311457e+00 -3.4624452813e+00 1.7070000000e-13
     1      1      2
 1  1  1     4.8698220879e+00
 1  1  2     3.3380122736e+00
 1  1  3    -4.7206622285e+00
 1  2  1     3.3375551043e+00
 1  2  2     1.6230100825e+00
 1  2  3    -2.9400120616e+00
 1  3  1    -4.7200156934e+00
 1  3  2    -2.9400120616e+00
 1  3  3     3.7019125477e+00
 2  1  1     3.3375551043e+00
 2  1  2     1.6230100825e+00
 2  1  3    -2.9400120616e+00
 2  2  1     1.6238019231e+00
 2  2  2     4.1108329721e-01
 2  2  3    -1.3258287182e+00
 2  3  1    -2.9400120616e+00
 2  3  2    -1.3251821832e+00
 2  3  3     2.1373002060e+00
 3  1  1    -4.7200156934e+00
 3  1  2    -2.9400120616e+00
 3  1  3     3.7019125477e+00
 3  2  1    -2.9400120616e+00
 3  2  2    -1.3251821832e+00
 3  2  3     2.1373002060e+00
 3  3  1     3.7027043883e+00
 3  3  2     2.1377573753e+00
 3  3  3    -2.2787763290e+00

   14
0.0000000000e+00 0.0000000000e+00 0.0000000000e+00
1.9990437153e+00 1.1541484271e+00 3.2644247172e+00
     1      1      1
 1  1  1    -1.0137831980e-02
 1  1  2    -6.7368367482e-02
 1  1  3    -1.9089290913e-01
 1  2  1    -6.7261777683e-02
 1  2  2    -3.3177376706e-03
 1  2  3    -1.6026503394e-01
 1  3  1    -1.9112792674e-01
 1  3  2    -1.6057478183e-01
 1  3  3    -4.0104168044e-01
 2  1  1    -6.7261777683e-02
 2  1  2    -3.3177376706e-03
 2  1  3    -1.6026503394e-01
 2  2  1    -3.5023566180e-03
 2  2  2     5.9493200926e-02
 2  2  3    -5.8347881402e-03
 2  3  1    -1.6057478183e-01
 2  3  2    -5.7121396886e-03
 2  3  3    -2.3154152215e-01
 3  1  1    -1.9112792674e-01
 3  1  2    -1.6057478183e-01
 3  1  3    -4.0104168044e-01
 3  2  1    -1.6057478183e-01
 3  2  2    -5.7121396886e-03
 3  2  3    -2.3154152215e-01
 3  3  1    -4.0078824973e-01
 3  3  2    -2.3139520386e-01
 3  3  3    -4.8003110858e-01

   15
0.0000000000e+00 0.0000000000e+00 0.0000000000e+00
-1.9990437152e+00 1.1541484271e+00 3.2644247172e+00
     1      1      1
 1  1  1     1.0137831962e-02
 1  1  2    -6.7368367475e-02
 1  1  3    -1.9089290911e-01
 1  2  1    -6.7261777676e-02
 1  2  2     3.3177376722e-03
 1  2  3     1.6026503394e-01
 1  3  1    -1.9112792671e-01
 1  3  2     1.6057478183e-01
 1  3  3     4.0104168043e-01
 2  1  1    -6.7261777676e-02
 2  1  2     3.3177376722e-03
 2  1  3     1.6026503394e-01
 2  2  1     3.5023566196e-03
 2  2  2     5.9493200926e-02
 2  2  3    -5.8347881402e-03
 2  3  1     1.6057478183e-01
 2  3  2    -5.7121396887e-03
 2  3  3    -2.3154152215e-01
 3  1  1    -1.9112792671e-01
 3  1  2     1.6057478183e-01
 3  1  3     4.0104168043e-01
 3  2  1     1.6057478183e-01
 3  2  2    -5.7121396887e-03
 3  2  3    -2.3154152215e-01
 3  3  1     4.0078824971e-01
 3  3  2    -2.3139520386e-01
 3  3  3    -4.8003110858e-01

   16
0.0000000000e+00 0.0000000000e+00 0.0000000000e+00
9.8681063321e-11 4.6165937084e+00 3.2644247172e+00
     1      1      1
 1  1  1     0.0000000000e+00
 1  1  2    -1.7922570842e-02
 1  1  3    -1.2673171379e-02
 1  2  1    -1.8316341552e-02
 1  2  2     0.0000000000e+00
 1  2  3     0.0000000000e+00
 1  3  1    -1.2951609318e-02
 1  3  2     0.0000000000e+00
 1  3  3     0.0000000000e+00
 2  1  1    -1.8316341552e-02
 2  1  2     0.0000000000e+00
 2  1  3     0.0000000000e+00
 2  2  1     0.0000000000e+00
 2  2  2     7.4389296205e-02
 2  2  3     7.8504394431e-02
 2  3  1     0.0000000000e+00
 2  3  2     7.8225956492e-02
 2  3  3     4.6155933524e-02
 3  1  1    -1.2951609318e-02
 3  1  2     0.0000000000e+00
 3  1  3     0.0000000000e+00
 3  2  1     0.0000000000e+00
 3  2  2     7.8225956492e-02
 3  2  3     4.6155933524e-02
 3  3  1     0.0000000000e+00
 3  3  2     4.6549704234e-02
 3  3  3     7.0123928901e-03

   17
0.0000000000e+00 0.0000000000e+00 0.0000000000e+00
0.0000000000e+00 -2.3082968543e+00 3.2644247172e+00
     1      1      1
 1  1  1     0.0000000000e+00
 1  1  2    -6.1302107866e-02
 1  1  3     8.6694272344e-02
 1  2  1    -6.1515287464e-02
 1  2  2    -1.7503450872e-12
 1  2  3     6.2327925994e-13
 1  3  1     8.6995753823e-02
 1  3  2     6.1439005608e-13
 1  3  3     1.7503273003e-12
 2  1  1    -6.1515287464e-02
 2  1  2    -1.7503559390e-12
 2  1  3     6.2327072408e-13
 2  2  1    -1.7461546330e-12
 2  2  2     7.7052440993e-02
 2  2  3    -2.8342196963e-01
 2  3  1     6.1734725201e-13
 2  3  2    -2.8383582026e-01
 2  3  3     4.6308304432e-01
 3  1  1     8.6995753823e-02
 3  1  2     6.1440817399e-13
 3  1  3     1.7503381686e-12
 3  2  1     6.1737388007e-13
 3  2  2    -2.8383582026e-01
 3  2  3     4.6308304432e-01
 3  3  1     1.7461605491e-12
 3  3  2     4.6279040773e-01
 3  3  3    -4.8003110857e-01

   18
0.0000000000e+00 0.0000000000e+00 0.0000000000e+00
3.9980874304e+00 -2.3082968543e+00 3.2644247172e+00
     1      1      1
 1  1  1     3.6505706254e-02
 1  1  2    -3.9392920887e-02
 1  1  3     5.5710002976e-02
 1  2  1    -3.9196035532e-02
 1  2  2     1.2054896942e-02
 1  2  3    -3.9481044125e-02
 1  3  1     5.5431565037e-02
 1  3  2    -3.9481044125e-02
 1  3  3     3.9972210966e-02
 2  1  1    -3.9196035532e-02
 2  1  2     1.2054896942e-02
 2  1  3    -3.9481044125e-02
 2  2  1     1.2395912380e-02
 2  2  2     1.1159558204e-02
 2  2  3     1.0121220076e-02
 2  3  1    -3.9481044125e-02
 2  3  2     9.8427821364e-03
 2  3  3    -2.3077966763e-02
 3  1  1     5.5431565037e-02
 3  1  2    -3.9481044125e-02
 3  1  3     3.9972210966e-02
 3  2  1    -3.9481044125e-02
 3  2  2     9.8427821364e-03
 3  2  3    -2.3077966763e-02
 3  3  1     4.0313226404e-02
 3  3  2    -2.3274852118e-02
 3  3  3     7.0123928901e-03

   19
0.0000000000e+00 0.0000000000e+00 0.0000000000e+00
-3.9980874304e+00 -2.3082968543e+00 3.2644247172e+00
     1      1      1
 1  1  1    -3.6505706258e-02
 1  1  2    -3.9392920887e-02
 1  1  3     5.5710002979e-02
 1  2  1    -3.9196035533e-02
 1  2  2    -1.2054896941e-02
 1  2  3     3.9481044124e-02
 1  3  1     5.5431565040e-02
 1  3  2     3.9481044124e-02
 1  3  3    -3.9972210965e-02
 2  1  1    -3.9196035533e-02
 2  1  2    -1.2054896941e-02
 2  1  3     3.9481044124e-02
 2  2  1    -1.2395912379e-02
 2  2  2     1.1159558204e-02
 2  2  3     1.0121220074e-02
 2  3  1     3.9481044124e-02
 2  3  2     9.8427821354e-03
 2  3  3    -2.3077966761e-02
 3  1  1     5.5431565040e-02
 3  1  2     3.9481044124e-02
 3  1  3    -3.9972210965e-02
 3  2  1     3.9481044124e-02
 3  2  2     9.8427821354e-03
 3  2  3    -2.3077966761e-02
 3  3  1    -4.0313226403e-02
 3  3  2    -2.3274852116e-02
 3  3  3     7.0123928883e-03

   20
0.0000000000e+00 0.0000000000e+00 0.0000000000e+00
-3.9980874304e+00 -2.3082968543e+00 3.2644247172e+00
     1      1      2
 1  1  1    -1.1571173305e-14
 1  1  2     6.2385109369e-04
 1  1  3    -2.8287731015e-03
 1  2  1     6.2385109368e-04
 1  2  2    -2.1234966428e-14
 1  2  3    -4.8423158826e-14
 1  3  1    -2.6256458226e-03
 1  3  2    -4.4346106949e-14
 1  3  3     1.6694522383e-13
 2  1  1     6.2385109368e-04
 2  1  2    -2.1671311751e-14
 2  1  3    -4.9179957756e-14
 2  2  1    -2.2333061169e-14
 2  2  2    -6.2385109355e-04
 2  2  3    -2.8287731016e-03
 2  3  1    -4.4335364875e-14
 2  3  2    -2.6256458226e-03
 2  3  3    -1.7700975349e-13
 3  1  1    -2.6256458226e-03
 3  1  2    -4.4670506640e-14
 3  1  3     1.6738038482e-13
 3  2  1    -4.3477158454e-14
 3  2  2    -2.6256458226e-03
 3  2  3    -1.7843856793e-13
 3  3  1     1.6528465575e-13
 3  3  2    -1.8230718064e-13
 3  3  3     1.7286298028e-02

   21
0.0000000000e+00 0.0000000000e+00 0.0000000000e+00
-3.9980874305e+00 -2.3082968542e+00 -6.5288494344e+00
     1      1      2
 1  1  1     1.1571173305e-14
 1  1  2    -6.2385109369e-04
 1  1  3     2.8287731015e-03
 1  2  1    -6.2385109368e-04
 1  2  2     2.1234966428e-14
 1  2  3     4.8423158826e-14
 1  3  1     2.6256458226e-03
 1  3  2     4.4346106949e-14
 1  3  3    -1.6694522383e-13
 2  1  1    -6.2385109368e-04
 2  1  2     2.1671311751e-14
 2  1  3     4.9179957756e-14
 2  2  1     2.2333061169e-14
 2  2  2     6.2385109355e-04
 2  2  3     2.8287731016e-03
 2  3  1     4.4335364875e-14
 2  3  2     2.6256458226e-03
 2  3  3     1.7700975349e-13
 3  1  1     2.6256458226e-03
 3  1  2     4.4670506640e-14
 3  1  3    -1.6738038482e-13
 3  2  1     4.3477158454e-14
 3  2  2     2.6256458226e-03
 3  2  3     1.7843856793e-13
 3  3  1    -1.6528465575e-13
 3  3  2     1.8230718064e-13
 3  3  3    -1.7286298028e-02

   22
0.0000000000e+00 0.0000000000e+00 0.0000000000e+00
-1.9990437153e+00 -1.1541484271e+00 -3.2644247172e+00
     1      1      1
 1  1  1     1.0137831980e-02
 1  1  2     6.7368367482e-02
 1  1  3     1.9089290913e-01
 1  2  1     6.7261777683e-02
 1  2  2     3.3177376706e-03
 1  2  3     1.6026503394e-01
 1  3  1     1.9112792674e-01
 1  3  2     1.6057478183e-01
 1  3  3     4.0104168044e-01
 2  1  1     6.7261777683e-02
 2  1  2     3.3177376706e-03
 2  1  3     1.6026503394e-01
 2  2  1     3.5023566180e-03
 2  2  2    -5.9493200926e-02
 2  2  3     5.8347881402e-03
 2  3  1     1.6057478183e-01
 2  3  2     5.7121396886e-03
 2  3  3     2.3154152215e-01
 3  1  1     1.9112792674e-01
 3  1  2     1.6057478183e-01
 3  1  3     4.0104168044e-01
 3  2  1     1.6057478183e-01
 3  2  2     5.7121396886e-03
 3  2  3     2.3154152215e-01
 3  3  1     4.0078824973e-01
 3  3  2     2.3139520386e-01
 3  3  3     4.8003110858e-01

   23
0.0000000000e+00 0.0000000000e+00 0.0000000000e+00
-1.9990437153e+00 -1.1541484271e+00 -3.2644247172e+00
     1      1      2
 1  1  1    -4.8698220879e+00
 1  1  2    -3.3380122736e+00
 1  1  3     4.7206622285e+00
 1  2  1    -3.3375551043e+00
 1  2  2    -1.6230100825e+00
 1  2  3     2.9400120616e+00
 1  3  1     4.7200156934e+00
 1  3  2     2.9400120616e+00
 1  3  3    -3.7019125477e+00
 2  1  1    -3.3375551043e+00
 2  1  2    -1.6230100825e+00
 2  1  3     2.9400120616e+00
 2  2  1    -1.6238019231e+00
 2  2  2    -4.1108329721e-01
 2  2  3     1.3258287182e+00
 2  3  1     2.9400120616e+00
 2  3  2     1.3251821832e+00
 2  3  3    -2.1373002060e+00
 3  1  1     4.7200156934e+00
 3  1  2     2.9400120616e+00
 3  1  3    -3.7019125477e+00
 3  2  1     2.9400120616e+00
 3  2  2     1.3251821832e+00
 3  2  3    -2.1373002060e+00
 3  3  1    -3.7027043883e+00
 3  3  2    -2.1377573753e+00
 3  3  3     2.2787763290e+00

   24
0.0000000000e+00 0.0000000000e+00 0.0000000000e+00
1.9990437152e+00 -1.1541484271e+00 -3.2644247172e+00
     1      1      1
 1  1  1    -1.0137831962e-02
 1  1  2     6.7368367475e-02
 1  1  3     1.9089290911e-01
 1  2  1     6.7261777676e-02
 1  2  2    -3.3177376722e-03
 1  2  3    -1.6026503394e-01
 1  3  1     1.9112792671e-01
 1  3  2    -1.6057478183e-01
 1  3  3    -4.0104168043e-01
 2  1  1     6.7261777676e-02
 2  1  2    -3.3177376722e-03
 2  1  3    -1.6026503394e-01
 2  2  1    -3.5023566196e-03
 2  2  2    -5.9493200926e-02
 2  2  3     5.8347881402e-03
 2  3  1    -1.6057478183e-01
 2  3  2     5.7121396887e-03
 2  3  3     2.3154152215e-01
 3  1  1     1.9112792671e-01
 3  1  2    -1.6057478183e-01
 3  1  3    -4.0104168043e-01
 3  2  1    -1.6057478183e-01
 3  2  2     5.7121396887e-03
 3  2  3     2.3154152215e-01
 3  3  1    -4.0078824971e-01
 3  3  2     2.3139520386e-01
 3  3  3     4.8003110858e-01

   25
0.0000000000e+00 0.0000000000e+00 0.0000000000e+00
-5.9971311457e+00 -1.1541484271e+00 -3.2644247172e+00
     1      1      2
 1  1  1     4.8698220875e+00
 1  1  2    -3.3380122735e+00
 1  1  3     4.7206622283e+00
 1  2  1    -3.3375551042e+00
 1  2  2     1.6230100826e+00
 1  2  3    -2.9400120616e+00
 1  3  1     4.7200156932e+00
 1  3  2    -2.9400120616e+00
 1  3  3     3.7019125478e+00
 2  1  1    -3.3375551042e+00
 2  1  2     1.6230100826e+00
 2  1  3    -2.9400120616e+00
 2  2  1     1.6238019231e+00
 2  2  2    -4.1108329727e-01
 2  2  3     1.3258287184e+00
 2  3  1    -2.9400120616e+00
 2  3  2     1.3251821833e+00
 2  3  3    -2.1373002061e+00
 3  1  1     4.7200156932e+00
 3  1  2    -2.9400120616e+00
 3  1  3     3.7019125478e+00
 3  2  1    -2.9400120616e+00
 3  2  2     1.3251821833e+00
 3  2  3    -2.1373002061e+00
 3  3  1     3.7027043883e+00
 3  3  2    -2.1377573755e+00
 3  3  3     2.2787763292e+00

   26
0.0000000000e+00 0.0000000000e+00 0.0000000000e+00
0.0000000000e+00 2.3082968543e+00 -3.2644247172e+00
     1      1      1
 1  1  1     0.0000000000e+00
 1  1  2     6.1302107866e-02
 1  1  3    -8.6694272344e-02
 1  2  1     6.1515287464e-02
 1  2  2     1.7503450872e-12
 1  2  3    -6.2327925994e-13
 1  3  1    -8.6995753823e-02
 1  3  2    -6.1439005608e-13
 1  3  3    -1.7503273003e-12
 2  1  1     6.1515287464e-02
 2  1  2     1.7503559390e-12
 2  1  3    -6.2327072408e-13
 2  2  1     1.7461546330e-12
 2  2  2    -7.7052440993e-02
 2  2  3     2.8342196963e-01
 2  3  1    -6.1734725201e-13
 2  3  2     2.8383582026e-01
 2  3  3    -4.6308304432e-01
 3  1  1    -8.6995753823e-02
 3  1  2    -6.1440817399e-13
 3  1  3    -1.7503381686e-12
 3  2  1    -6.1737388007e-13
 3  2  2     2.8383582026e-01
 3  2  3    -4.6308304432e-01
 3  3  1    -1.7461605491e-12
 3  3  2    -4.6279040773e-01
 3  3  3     4.8003110857e-01

   27
0.0000000000e+00 0.0000000000e+00 0.0000000000e+00
3.9980874304e+00 2.3082968543e+00 -3.2644247172e+00
     1      1      1
 1  1  1     3.6505706258e-02
 1  1  2     3.9392920887e-02
 1  1  3    -5.5710002979e-02
 1  2  1     3.9196035533e-02
 1  2  2     1.2054896941e-02
 1  2  3    -3.9481044124e-02
 1  3  1    -5.5431565040e-02
 1  3  2    -3.9481044124e-02
 1  3  3     3.9972210965e-02
 2  1  1     3.9196035533e-02
 2  1  2     1.2054896941e-02
 2  1  3    -3.9481044124e-02
 2  2  1     1.2395912379e-02
 2  2  2    -1.1159558204e-02
 2  2  3    -1.0121220074e-02
 2  3  1    -3.9481044124e-02
 2  3  2    -9.8427821354e-03
 2  3  3     2.3077966761e-02
 3  1  1    -5.5431565040e-02
 3  1  2    -3.9481044124e-02
 3  1  3     3.9972210965e-02
 3  2  1    -3.9481044124e-02
 3  2  2    -9.8427821354e-03
 3  2  3     2.3077966761e-02
 3  3  1     4.0313226403e-02
 3  3  2     2.3274852116e-02
 3  3  3    -7.0123928883e-03

   28
0.0000000000e+00 0.0000000000e+00 0.0000000000e+00
-3.9980874304e+00 2.3082968543e+00 -3.2644247172e+00
     1      1      1
 1  1  1    -3.6505706254e-02
 1  1  2     3.9392920887e-02
 1  1  3    -5.5710002976e-02
 1  2  1     3.9196035532e-02
 1  2  2    -1.2054896942e-02
 1  2  3     3.9481044125e-02
 1  3  1    -5.5431565037e-02
 1  3  2     3.9481044125e-02
 1  3  3    -3.9972210966e-02
 2  1  1     3.9196035532e-02
 2  1  2    -1.2054896942e-02
 2  1  3     3.9481044125e-02
 2  2  1    -1.2395912380e-02
 2  2  2    -1.1159558204e-02
 2  2  3    -1.0121220076e-02
 2  3  1     3.9481044125e-02
 2  3  2    -9.8427821364e-03
 2  3  3     2.3077966763e-02
 3  1  1    -5.5431565037e-02
 3  1  2     3.9481044125e-02
 3  1  3    -3.9972210966e-02
 3  2  1     3.9481044125e-02
 3  2  2    -9.8427821364e-03
 3  2  3     2.3077966763e-02
 3  3  1    -4.0313226404e-02
 3  3  2     2.3274852118e-02
 3  3  3    -7.0123928901e-03

   29
0.0000000000e+00 0.0000000000e+00 0.0000000000e+00
-3.9980874304e+00 2.3082968543e+00 -3.2644247172e+00
     1      1      2
 1  1  1    -5.4726993612e-14
 1  1  2    -2.4590424922e-03
 1  1  3     1.5310968188e-03
 1  2  1    -2.2675322570e-03
 1  2  2     1.2861498630e-13
 1  2  3    -9.6984844176e-14
 1  3  1     1.4633877259e-03
 1  3  2    -9.6271207325e-14
 1  3  3     1.2451960222e-14
 2  1  1    -2.2675322570e-03
 2  1  2     1.2714923212e-13
 2  1  3    -9.6253155375e-14
 2  2  1     1.2549832149e-13
 2  2  2     1.3617279573e-02
 2  2  3    -6.6383874683e-03
 2  3  1    -9.4372725443e-14
 2  3  2    -6.7060965613e-03
 2  3  3    -3.0344815645e-06
 3  1  1     1.4633877259e-03
 3  1  2    -9.6004879189e-14
 3  1  3     1.2440831584e-14
 3  2  1    -9.5264016664e-14
 3  2  2    -6.7060965613e-03
 3  2  3    -3.0344815645e-06
 3  3  1     9.7076341733e-15
 3  3  2    -1.9454471675e-04
 3  3  3     1.2310400409e-03

   30
0.0000000000e+00 0.0000000000e+00 0.0000000000e+00
-3.9980874305e+00 -4.6165937084e+00 -3.2644247172e+00
     1      1      2
 1  1  1     0.0000000000e+00
 1  1  2    -5.2550484149e-01
 1  1  3    -3.7158803696e-01
 1  2  1    -5.2641918018e-01
 1  2  2     0.0000000000e+00
 1  2  3     0.0000000000e+00
 1  3  1    -3.7223457205e-01
 1  3  2     0.0000000000e+00
 1  3  3     0.0000000000e+00
 2  1  1    -5.2641918018e-01
 2  1  2     0.0000000000e+00
 2  1  3     0.0000000000e+00
 2  2  1     0.0000000000e+00
 2  2  2     8.0236959826e+00
 2  2  3     6.4180789836e+00
 2  3  1     0.0000000000e+00
 2  3  2     6.4174324485e+00
 2  3  3     4.2746004121e+00
 3  1  1    -3.7223457205e-01
 3  1  2     0.0000000000e+00
 3  1  3     0.0000000000e+00
 3  2  1     0.0000000000e+00
 3  2  2     6.4174324485e+00
 3  2  3     4.2746004121e+00
 3  3  1     0.0000000000e+00
 3  3  2     4.2755147507e+00
 3  3  3     2.2787763292e+00

   31
0.0000000000e+00 0.0000000000e+00 0.0000000000e+00
-9.8681063321e-11 -4.6165937084e+00 -3.2644247172e+00
     1      1      1
 1  1  1     0.0000000000e+00
 1  1  2     1.7922570842e-02
 1  1  3     1.2673171379e-02
 1  2  1     1.8316341552e-02
 1  2  2     0.0000000000e+00
 1  2  3     0.0000000000e+00
 1  3  1     1.2951609318e-02
 1  3  2     0.0000000000e+00
 1  3  3     0.0000000000e+00
 2  1  1     1.8316341552e-02
 2  1  2     0.0000000000e+00
 2  1  3     0.0000000000e+00
 2  2  1     0.0000000000e+00
 2  2  2    -7.4389296205e-02
 2  2  3    -7.8504394431e-02
 2  3  1     0.0000000000e+00
 2  3  2    -7.8225956492e-02
 2  3  3    -4.6155933524e-02
 3  1  1     1.2951609318e-02
 3  1  2     0.0000000000e+00
 3  1  3     0.0000000000e+00
 3  2  1     0.0000000000e+00
 3  2  2    -7.8225956492e-02
 3  2  3    -4.6155933524e-02
 3  3  1     0.0000000000e+00
 3  3  2    -4.6549704234e-02
 3  3  3    -7.0123928901e-03

   32
0.0000000000e+00 0.0000000000e+00 0.0000000000e+00
-9.8681063321e-11 -4.6165937084e+00 -3.2644247172e+00
     1      1      2
 1  1  1     7.3304139434e-03
 1  1  2    -6.4997487206e-03
 1  1  3    -4.5960163963e-03
 1  2  1    -6.5955038382e-03
 1  2  2     2.4987555575e-03
 1  2  3     3.5374904642e-03
 1  3  1    -4.6637254893e-03
 1  3  2     3.5374904642e-03
 1  3  3    -2.6279380732e-06
 2  1  1    -6.5955038382e-03
 2  1  2     2.4987555575e-03
 2  1  3     3.5374904642e-03
 2  2  1     2.3329028287e-03
 2  2  2     9.2063018079e-04
 2  2  3    -5.1127425290e-04
 2  3  1     3.5374904642e-03
 2  3  2    -5.7898334588e-04
 2  3  3     1.5172407290e-06
 3  1  1    -4.6637254893e-03
 3  1  2     3.5374904642e-03
 3  1  3    -2.6279380732e-06
 3  2  1     3.5374904642e-03