 1046

    1
0.0000000000e+00 0.0000000000e+00 0.0000000000e+00
0.0000000000e+00 0.0000000000e+00 0.0000000000e+00
     1      1      1
 1  1  1     0.0000000000e+00
 1  1  2     0.0000000000e+00
 1  1  3     0.0000000000e+00
 1  2  1     0.0000000000e+00
 1  2  2     0.0000000000e+00
 1  2  3     0.0000000000e+00
 1  3  1     0.0000000000e+00
 1  3  2     0.0000000000e+00
 1  3  3     0.0000000000e+00
 2  1  1     0.0000000000e+00
 2  1  2     0.0000000000e+00
 2  1  3     0.0000000000e+00
 2  2  1     0.0000000000e+00
 2  2  2     0.0000000000e+00
 2  2  3     0.0000000000e+00
 2  3  1     0.0000000000e+00
 2  3  2     0.0000000000e+00
 2  3  3     0.0000000000e+00
 3  1  1     0.0000000000e+00
 3  1  2     0.0000000000e+00
 3  1  3     0.0000000000e+00
 3  2  1     0.0000000000e+00
 3  2  2     0.0000000000e+00
 3  2  3     0.0000000000e+00
 3  3  1     0.0000000000e+00
 3  3  2     0.0000000000e+00
 3  3  3     0.0000000000e+00

    2
0.0000000000e+00 0.0000000000e+00 0.0000000000e+00
0.0000000000e+00 0.0000000000e+00 0.0000000000e+00
     1      1      2
 1  1  1     7.2996601807e-03
 1  1  2     6.1342527275e-03
 1  1  3     4.3375717011e-03
 1  2  1     6.0221549459e-03
 1  2  2     2.3685003757e-03
 1  2  3     3.6443738104e-03
 1  3  1     4.2583065996e-03
 1  3  2     3.6443738104e-03
 1  3  3    -2.0846105872e-04
 2  1  1     6.0221549459e-03
 2  1  2     2.3685003757e-03
 2  1  3     3.6443738104e-03
 2  2  1     2.5626594288e-03
 2  2  2    -4.4023984619e-04
 2  2  3     1.2941130015e-04
 2  3  1     3.6443738104e-03
 2  3  2     5.0146198657e-05
 2  3  3    -1.2035504837e-04
 3  1  1     4.2583065996e-03
 3  1  2     3.6443738104e-03
 3  1  3    -2.0846105872e-04
 3  2  1     3.6443738104e-03
 3  2  2     5.0146198657e-05
 3  2  3    -1.2035504837e-04
 3  3  1    -1.4302005652e-05
 3  3  2    -8.2572668130e-06
 3  3  3    -4.4654665009e-04

    3
0.0000000000e+00 0.0000000000e+00 0.0000000000e+00
3.9980874304e+00 -3.8090000000e-13 -2.6930000000e-13
     1      1      1
 1  1  1    -1.0438217992e+00
 1  1  2     0.0000000000e+00
 1  1  3     0.0000000000e+00
 1  2  1     0.0000000000e+00
 1  2  2     1.0682209033e-01
 1  2  3    -2.3759339861e-05
 1  3  1     0.0000000000e+00
 1  3  2    -2.3759339861e-05
 1  3  3     1.0683889072e-01
 2  1  1     0.0000000000e+00
 2  1  2     1.0682209033e-01
 2  1  3    -2.3759339861e-05
 2  2  1     1.0717742074e-01
 2  2  2     0.0000000000e+00
 2  2  3     0.0000000000e+00
 2  3  1     6.7718135348e-04
 2  3  2     0.0000000000e+00
 2  3  3     0.0000000000e+00
 3  1  1     0.0000000000e+00
 3  1  2    -2.3759339861e-05
 3  1  3     1.0683889072e-01
 3  2  1     6.7718135348e-04
 3  2  2     0.0000000000e+00
 3  2  3     0.0000000000e+00
 3  3  1     1.0669858122e-01
 3  3  2     0.0000000000e+00
 3  3  3     0.0000000000e+00

    4
0.0000000000e+00 0.0000000000e+00 0.0000000000e+00
-7.9961748609e+00 7.6180000000e-13 5.3860000000e-13
     1      1      2
 1  1  1    -7.2996601800e-03
 1  1  2     6.1342527272e-03
 1  1  3     4.3375717009e-03
 1  2  1     6.0221549457e-03
 1  2  2    -2.3685003757e-03
 1  2  3    -3.6443738104e-03
 1  3  1     4.2583065994e-03
 1  3  2    -3.6443738104e-03
 1  3  3     2.0846105872e-04
 2  1  1     6.0221549457e-03
 2  1  2    -2.3685003757e-03
 2  1  3    -3.6443738104e-03
 2  2  1    -2.5626594288e-03
 2  2  2    -4.4023984617e-04
 2  2  3     1.2941130016e-04
 2  3  1    -3.6443738104e-03
 2  3  2     5.0146198658e-05
 2  3  3    -1.2035504836e-04
 3  1  1     4.2583065994e-03
 3  1  2    -3.6443738104e-03
 3  1  3     2.0846105872e-04
 3  2  1    -3.6443738104e-03
 3  2  2     5.0146198658e-05
 3  2  3    -1.2035504836e-04
 3  3  1     1.4302005645e-05
 3  3  2    -8.2572667975e-06
 3  3  3    -4.4654665009e-04

    5
0.0000000000e+00 0.0000000000e+00 0.0000000000e+00
-3.9980874304e+00 3.8090000000e-13 2.6930000000e-13
     1      1      1
 1  1  1     1.0438217992e+00
 1  1  2     0.0000000000e+00
 1  1  3     0.0000000000e+00
 1  2  1     0.0000000000e+00
 1  2  2    -1.0682209033e-01
 1  2  3     2.3759339861e-05
 1  3  1     0.0000000000e+00
 1  3  2     2.3759339861e-05
 1  3  3    -1.0683889072e-01
 2  1  1     0.0000000000e+00
 2  1  2    -1.0682209033e-01
 2  1  3     2.3759339861e-05
 2  2  1    -1.0717742074e-01
 2  2  2     0.0000000000e+00
 2  2  3     0.0000000000e+00
 2  3  1    -6.7718135348e-04
 2  3  2     0.0000000000e+00
 2  3  3     0.0000000000e+00
 3  1  1     0.0000000000e+00
 3  1  2     2.3759339861e-05
 3  1  3    -1.0683889072e-01
 3  2  1    -6.7718135348e-04
 3  2  2     0.0000000000e+00
 3  2  3     0.0000000000e+00
 3  3  1    -1.0669858122e-01
 3  3  2     0.0000000000e+00
 3  3  3     0.0000000000e+00

    6
0.0000000000e+00 0.0000000000e+00 0.0000000000e+00
-3.9980874304e+00 3.8090000000e-13 2.6930000000e-13
     1      1      2
 1  1  1     0.0000000000e+00
 1  1  2     5.2613710535e-01
 1  1  3     3.7203511503e-01
 1  2  1     5.2718562847e-01
 1  2  2     0.0000000000e+00
 1  2  3     0.0000000000e+00
 1  3  1     3.7277653284e-01
 1  3  2     0.0000000000e+00
 1  3  3     0.0000000000e+00
 2  1  1     5.2718562847e-01
 2  1  2     0.0000000000e+00
 2  1  3     0.0000000000e+00
 2  2  1     0.0000000000e+00
 2  2  2    -8.0226719554e+00
 2  2  3    -6.4184388086e+00
 2  3  1     0.0000000000e+00
 2  3  2    -6.4176973908e+00
 2  3  3    -4.2744045304e+00
 3  1  1     3.7277653284e-01
 3  1  2     0.0000000000e+00
 3  1  3     0.0000000000e+00
 3  2  1     0.0000000000e+00
 3  2  2    -6.4176973908e+00
 3  2  3    -4.2744045304e+00
 3  3  1     0.0000000000e+00
 3  3  2    -4.2754530535e+00
 3  3  3    -2.2776487811e+00

    7
0.0000000000e+00 0.0000000000e+00 0.0000000000e+00
1.9990437153e+00 3.4624452813e+00 9.8600000000e-14
     1      1      1
 1  1  1    -1.0169624387e-02
 1  1  2    -2.0263559395e-01
 1  1  3    -2.0576190441e-05
 1  2  1    -2.0294331912e-01
 1  2  2    -4.5833023008e-01
 1  2  3    -1.1879669930e-05
 1  3  1     2.8294003306e-04
 1  3  2     5.1382585006e-04
 1  3  3     5.3419445360e-02
 2  1  1    -2.0294331912e-01
 2  1  2    -4.5833023008e-01
 2  1  3    -1.1879669930e-05
 2  2  1    -4.5815256487e-01
 2  2  2    -6.0852223214e-01
 2  2  3     2.0576187500e-05
 2  3  1    -1.8711484329e-04
 2  3  2    -2.8294003600e-04
 2  3  3     9.2525193474e-02
 3  1  1     2.8294003306e-04
 3  1  2     5.1382585006e-04
 3  1  3     5.3419445360e-02
 3  2  1    -1.8711484329e-04
 3  2  2    -2.8294003600e-04
 3  2  3     9.2525193474e-02
 3  3  1     5.3349290609e-02
 3  3  2     9.2403681881e-02
 3  3  3     0.0000000000e+00

    8
0.0000000000e+00 0.0000000000e+00 0.0000000000e+00
-3.9980874305e+00 -6.9248905627e+00 -1.9720000000e-13
     1      1      2
 1  1  1     1.7586198985e-14
 1  1  2     1.6955963942e-03
 1  1  3    -1.9746689003e-03
 1  2  1     1.9197919573e-03
 1  2  2    -1.2489801317e-13
 1  2  3     9.6354584308e-14
 1  3  1    -2.0539340018e-03
 1  3  2     9.0389630735e-14
 1  3  3    -5.7098009717e-16
 2  1  1     1.9197919573e-03
 2  1  2    -1.2338551771e-13
 2  1  3     9.5602547799e-14
 2  2  1    -1.2073212329e-13
 2  2  2    -1.3083622157e-02
 2  2  3     6.4416519016e-03
 2  3  1     9.2294454343e-14
 2  3  2     6.3623868001e-03
 2  3  3     2.4071009676e-04
 3  1  1    -2.0539340018e-03
 3  1  2     9.0120261112e-14
 3  1  3    -5.5830597062e-16
 3  2  1     9.3215917791e-14
 3  2  2     6.3623868001e-03
 3  2  3     2.4071009676e-04
 3  3  1    -3.2337791927e-15
 3  3  2     1.6514533634e-05
 3  3  3    -4.4654665007e-04

    9
0.0000000000e+00 0.0000000000e+00 0.0000000000e+00
-1.9990437152e+00 3.4624452813e+00 3.6790000000e-13
     1      1      1
 1  1  1     1.0169624370e-02
 1  1  2    -2.0263559392e-01
 1  1  3    -2.0576192582e-05
 1  2  1    -2.0294331909e-01
 1  2  2     4.5833023006e-01
 1  2  3     1.1879671797e-05
 1  3  1     2.8294003091e-04
 1  3  2    -5.1382584820e-04
 1  3  3    -5.3419445357e-02
 2  1  1    -2.0294331909e-01
 2  1  2     4.5833023006e-01
 2  1  3     1.1879671797e-05
 2  2  1     4.5815256486e-01
 2  2  2    -6.0852223214e-01
 2  2  3     2.0576187489e-05
 2  3  1     1.8711484514e-04
 2  3  2    -2.8294003600e-04
 2  3  3     9.2525193474e-02
 3  1  1     2.8294003091e-04
 3  1  2    -5.1382584821e-04
 3  1  3    -5.3419445357e-02
 3  2  1     1.8711484514e-04
 3  2  2    -2.8294003600e-04
 3  2  3     9.2525193474e-02
 3  3  1    -5.3349290606e-02
 3  3  2     9.2403681881e-02
 3  3  3     0.0000000000e+00

   10
0.0000000000e+00 0.0000000000e+00 0.0000000000e+00
-1.9990437153e+00 -3.4624452813e+00 -9.8600000000e-14
     1      1      1
 1  1  1     1.0169624387e-02
 1  1  2     2.0263559395e-01
 1  1  3     2.0576190441e-05
 1  2  1     2.0294331912e-01
 1  2  2     4.5833023008e-01
 1  2  3     1.1879669930e-05
 1  3  1    -2.8294003306e-04
 1  3  2    -5.1382585006e-04
 1  3  3    -5.3419445360e-02
 2  1  1     2.0294331912e-01
 2  1  2     4.5833023008e-01
 2  1  3     1.1879669930e-05
 2  2  1     4.5815256487e-01
 2  2  2     6.0852223214e-01
 2  2  3    -2.0576187500e-05
 2  3  1     1.8711484329e-04
 2  3  2     2.8294003600e-04
 2  3  3    -9.2525193474e-02
 3  1  1    -2.8294003306e-04
 3  1  2    -5.1382585006e-04
 3  1  3    -5.3419445360e-02
 3  2  1     1.8711484329e-04
 3  2  2     2.8294003600e-04
 3  2  3    -9.2525193474e-02
 3  3  1    -5.3349290609e-02
 3  3  2    -9.2403681881e-02
 3  3  3     0.0000000000e+00

   11
0.0000000000e+00 0.0000000000e+00 0.0000000000e+00
-1.9990437153e+00 -3.4624452813e+00 -9.8600000000e-14
     1      1      2
 1  1  1    -4.8686881914e+00
 1  1  2     3.3381240666e+00
 1  1  3    -4.7208203276e+00
 1  2  1     3.3375998050e+00
 1  2  2    -1.6225933815e+00
 1  2  3     2.9403614609e+00
 1  3  1    -4.7200789098e+00
 1  3  2     2.9403614609e+00
 1  3  3    -3.7017429093e+00
 2  1  1     3.3375998050e+00
 2  1  2    -1.6225933815e+00
 2  1  3     2.9403614609e+00
 2  2  1    -1.6235014292e+00
 2  2  2     4.1014335871e-01
 2  2  3    -1.3255833661e+00
 2  3  1     2.9403614609e+00
 2  3  2    -1.3248419482e+00
 2  3  3     2.1372022653e+00
 3  1  1    -4.7200789098e+00
 3  1  2     2.9403614609e+00
 3  1  3    -3.7017429093e+00
 3  2  1     2.9403614609e+00
 3  2  2    -1.3248419482e+00
 3  2  3     2.1372022653e+00
 3  3  1    -3.7026509570e+00
 3  3  2     2.1377265269e+00
 3  3  3    -2.2776487811e+00

   12
0.0000000000e+00 0.0000000000e+00 0.0000000000e+00
1.9990437152e+00 -3.4624452813e+00 -3.6790000000e-13
     1      1      1
 1  1  1    -1.0169624370e-02
 1  1  2     2.0263559392e-01
 1  1  3     2.0576192582e-05
 1  2  1     2.0294331909e-01
 1  2  2    -4.5833023006e-01
 1  2  3    -1.1879671797e-05
 1  3  1    -2.8294003091e-04
 1  3  2     5.1382584820e-04
 1  3  3     5.3419445357e-02
 2  1  1     2.0294331909e-01
 2  1  2    -4.5833023006e-01
 2  1  3    -1.1879671797e-05
 2  2  1    -4.5815256486e-01
 2  2  2     6.0852223214e-01
 2  2  3    -2.0576187489e-05
 2  3  1    -1.8711484514e-04
 2  3  2     2.8294003600e-04
 2  3  3    -9.2525193474e-02
 3  1  1    -2.8294003091e-04
 3  1  2     5.1382584821e-04
 3  1  3     5.3419445357e-02
 3  2  1    -1.8711484514e-04
 3  2  2     2.8294003600e-04
 3  2  3    -9.2525193474e-02
 3  3  1     5.3349290606e-02
 3  3  2    -9.2403681881e-02
 3  3  3     0.0000000000e+00

   13
0.0000000000e+00 0.0000000000e+00 0.0000000000e+00
-5.9971311457e+00 -3.4624452813e+00 1.7070000000e-13
     1      1      2
 1  1  1     4.8686881918e+00
 1  1  2     3.3381240667e+00
 1  1  3    -4.7208203277e+00
 1  2  1     3.3375998051e+00
 1  2  2     1.6225933814e+00
 1  2  3    -2.9403614609e+00
 1  3  1    -4.7200789099e+00
 1  3  2    -2.9403614609e+00
 1  3  3     3.7017429092e+00
 2  1  1     3.3375998051e+00
 2  1  2     1.6225933814e+00
 2  1  3    -2.9403614609e+00
 2  2  1     1.6235014291e+00
 2  2  2     4.1014335865e-01
 2  2  3    -1.3255833660e+00
 2  3  1    -2.9403614609e+00
 2  3  2    -1.3248419481e+00
 2  3  3     2.1372022652e+00
 3  1  1    -4.7200789099e+00
 3  1  2    -2.9403614609e+00
 3  1  3     3.7017429092e+00
 3  2  1    -2.9403614609e+00
 3  2  2    -1.3248419481e+00
 3  2  3     2.1372022652e+00
 3  3  1     3.7026509569e+00
 3  3  2     2.1377265267e+00
 3  3  3    -2.2776487809e+00

   14
0.0000000000e+00 0.0000000000e+00 0.0000000000e+00
1.9990437153e+00 1.1541484271e+00 3.2644247172e+00
     1      1      1
 1  1  1    -1.0169624383e-02
 1  1  2    -6.7564597397e-02
 1  1  3    -1.9103981139e-01
 1  2  1    -6.7381014613e-02
 1  2  2    -3.2838832177e-03
 1  2  3    -1.6036935295e-01
 1  3  1    -1.9143110953e-01
 1  3  2    -1.6089505847e-01
 1  3  3    -4.0162690149e-01
 2  1  1    -6.7381014613e-02
 2  1  2    -3.2838832177e-03
 2  1  3    -1.6036935295e-01
 2  2  1    -3.6018579275e-03
 2  2  2     5.9613628380e-02
 2  2  3    -5.8612331770e-03
 2  3  1    -1.6089505847e-01
 2  3  2    -5.6454988737e-03
 2  3  3    -2.3187939968e-01
 3  1  1    -1.9143110953e-01
 3  1  2    -1.6089505847e-01
 3  1  3    -4.0162690149e-01
 3  2  1    -1.6089505847e-01
 3  2  2    -5.6454988737e-03
 3  2  3    -2.3187939968e-01
 3  3  1    -4.0120141633e-01
 3  3  2    -2.3163374571e-01
 3  3  3    -4.8074686126e-01

   15
0.0000000000e+00 0.0000000000e+00 0.0000000000e+00
-3.9980874305e+00 -2.3082968542e+00 -6.5288494344e+00
     1      1      2
 1  1  1     2.3901089498e-15
 1  1  2    -1.2965368953e-03
 1  1  3     2.2568465780e-03
 1  2  1    -1.2965368953e-03
 1  2  2     3.8934695409e-14
 1  2  3     3.3018386742e-14
 1  3  1     2.4946418825e-03
 1  3  2     3.9484628330e-14
 1  3  3    -1.6557005689e-13
 2  1  1    -1.2965368953e-03
 2  1  2     3.9351498978e-14
 2  1  3     3.3801967295e-14
 2  2  1     3.7745440776e-14
 2  2  2     1.2965368952e-03
 2  2  3     2.2568465781e-03
 2  3  1     3.9849974702e-14
 2  3  2     2.4946418825e-03
 2  3  3     1.6580043650e-13
 3  1  1     2.4946418825e-03
 3  1  2     3.9830394477e-14
 3  1  3    -1.6601979462e-13
 3  2  1     3.8973465423e-14
 3  2  2     2.4946418825e-03
 3  2  3     1.6727209627e-13
 3  3  1    -1.6681882401e-13
 3  3  2     1.6900464307e-13
 3  3  3    -1.6575002209e-02

   16
0.0000000000e+00 0.0000000000e+00 0.0000000000e+00
-1.9990437152e+00 1.1541484271e+00 3.2644247172e+00
     1      1      1
 1  1  1     1.0169624366e-02
 1  1  2    -6.7564597391e-02
 1  1  3    -1.9103981136e-01
 1  2  1    -6.7381014606e-02
 1  2  2     3.2838832193e-03
 1  2  3     1.6036935295e-01
 1  3  1    -1.9143110951e-01
 1  3  2     1.6089505847e-01
 1  3  3     4.0162690148e-01
 2  1  1    -6.7381014606e-02
 2  1  2     3.2838832193e-03
 2  1  3     1.6036935295e-01
 2  2  1     3.6018579291e-03
 2  2  2     5.9613628380e-02
 2  2  3    -5.8612331771e-03
 2  3  1     1.6089505847e-01
 2  3  2    -5.6454988738e-03
 2  3  3    -2.3187939968e-01
 3  1  1    -1.9143110951e-01
 3  1  2     1.6089505847e-01
 3  1  3     4.0162690148e-01
 3  2  1     1.6089505847e-01
 3  2  2    -5.6454988738e-03
 3  2  3    -2.3187939968e-01
 3  3  1     4.0120141631e-01
 3  3  2    -2.3163374571e-01
 3  3  3    -4.8074686126e-01

   17
0.0000000000e+00 0.0000000000e+00 0.0000000000e+00
9.8680508209e-11 4.6165937084e+00 3.2644247172e+00
     1      1      1
 1  1  1     0.0000000000e+00
 1  1  2    -1.8737809053e-02
 1  1  3    -1.3249631846e-02
 1  2  1    -1.8957713293e-02
 1  2  2     0.0000000000e+00
 1  2  3     0.0000000000e+00
 1  3  1    -1.3405127626e-02
 1  3  2     0.0000000000e+00
 1  3  3     0.0000000000e+00
 2  1  1    -1.8957713293e-02
 2  1  2     0.0000000000e+00
 2  1  3     0.0000000000e+00
 2  2  1     0.0000000000e+00
 2  2  2     7.4090664239e-02
 2  2  3     7.9200266358e-02
 2  3  1     0.0000000000e+00
 2  3  2     7.9044770579e-02
 2  3  3     4.6414236647e-02
 3  1  1    -1.3405127626e-02
 3  1  2     0.0000000000e+00
 3  1  3     0.0000000000e+00
 3  2  1     0.0000000000e+00
 3  2  2     7.9044770579e-02
 3  2  3     4.6414236647e-02
 3  3  1     0.0000000000e+00
 3  3  2     4.6634140887e-02
 3  3  3     6.1650620047e-03

   18
0.0000000000e+00 0.0000000000e+00 0.0000000000e+00
-2.7755575616e-16 -2.3082968543e+00 3.2644247172e+00
     1      1      1
 1  1  1     0.0000000000e+00
 1  1  2    -6.1325996458e-02
 1  1  3     8.6728055915e-02
 1  2  1    -6.1693162026e-02
 1  2  2    -1.7527432952e-12
 1  2  3     6.2714553725e-13
 1  3  1     8.7247306442e-02
 1  3  2     6.1221956441e-13
 1  3  3     1.7527255121e-12
 2  1  1    -6.1693162026e-02
 2  1  2    -1.7527541470e-12
 2  1  3     6.2713700087e-13
 2  2  1    -1.7457071024e-12
 2  2  2     7.7227934506e-02
 2  2  3    -2.8362910049e-01
 2  3  1     6.1718899527e-13
 2  3  2    -2.8432391486e-01
 2  3  3     4.6375879938e-01
 3  1  1     8.7247306442e-02
 3  1  2     6.1223770305e-13
 3  1  3     1.7527363824e-12
 3  2  1     6.1721568563e-13
 3  2  2    -2.8432391486e-01
 3  2  3     4.6375879938e-01
 3  3  1     1.7457130338e-12
 3  3  2     4.6326749143e-01
 3  3  3    -4.8074686125e-01

   19
0.0000000000e+00 0.0000000000e+00 0.0000000000e+00
3.9980874304e+00 -2.3082968543e+00 3.2644247172e+00
     1      1      1
 1  1  1     3.5857512742e-02
 1  1  2    -3.9660057930e-02
 1  1  3     5.6087791805e-02
 1  2  1    -3.9550105810e-02
 1  2  2     1.1889023365e-02
 1  2  3    -4.0031980213e-02
 1  3  1     5.5932296026e-02
 1  3  2    -4.0031980213e-02
 1  3  3     4.0195908033e-02
 2  1  1    -3.9550105810e-02
 2  1  2     1.1889023365e-02
 2  1  3    -4.0031980213e-02
 2  2  1     1.2079466023e-02
 2  2  2     1.1983630335e-02
 2  2  3     9.8628427068e-03
 2  3  1    -4.0031980213e-02
 2  3  2     9.7073469275e-03
 2  3  3    -2.3207118324e-02
 3  1  1     5.5932296026e-02
 3  1  2    -4.0031980213e-02
 3  1  3     4.0195908033e-02
 3  2  1    -4.0031980213e-02
 3  2  2     9.7073469275e-03
 3  2  3    -2.3207118324e-02
 3  3  1     4.0386350691e-02
 3  3  2    -2.3317070444e-02
 3  3  3     6.1650620047e-03

   20
0.0000000000e+00 0.0000000000e+00 0.0000000000e+00
-3.9980874304e+00 -2.3082968543e+00 3.2644247172e+00
     1      1      1
 1  1  1    -3.5857512745e-02
 1  1  2    -3.9660057930e-02
 1  1  3     5.6087791807e-02
 1  2  1    -3.9550105810e-02
 1  2  2    -1.1889023363e-02
 1  2  3     4.0031980212e-02
 1  3  1     5.5932296028e-02
 1  3  2     4.0031980212e-02
 1  3  3    -4.0195908032e-02
 2  1  1    -3.9550105810e-02
 2  1  2    -1.1889023363e-02
 2  1  3     4.0031980212e-02
 2  2  1    -1.2079466021e-02
 2  2  2     1.1983630335e-02
 2  2  3     9.8628427057e-03
 2  3  1     4.0031980212e-02
 2  3  2     9.7073469264e-03
 2  3  3    -2.3207118323e-02
 3  1  1     5.5932296028e-02
 3  1  2     4.0031980212e-02
 3  1  3    -4.0195908032e-02
 3  2  1     4.0031980212e-02
 3  2  2     9.7073469264e-03
 3  2  3    -2.3207118323e-02
 3  3  1    -4.0386350690e-02
 3  3  2    -2.3317070443e-02
 3  3  3     6.1650620029e-03

   21
0.0000000000e+00 0.0000000000e+00 0.0000000000e+00
-3.9980874304e+00 -2.3082968543e+00 3.2644247172e+00
     1      1      2
 1  1  1    -2.3901089498e-15
 1  1  2     1.2965368953e-03
 1  1  3    -2.2568465780e-03
 1  2  1     1.2965368953e-03
 1  2  2    -3.8934695409e-14
 1  2  3    -3.3018386742e-14
 1  3  1    -2.4946418825e-03
 1  3  2    -3.9484628330e-14
 1  3  3     1.6557005689e-13
 2  1  1     1.2965368953e-03
 2  1  2    -3.9351498978e-14
 2  1  3    -3.3801967295e-14
 2  2  1    -3.7745440776e-14
 2  2  2    -1.2965368952e-03
 2  2  3    -2.2568465781e-03
 2  3  1    -3.9849974702e-14
 2  3  2    -2.4946418825e-03
 2  3  3    -1.6580043650e-13
 3  1  1    -2.4946418825e-03
 3  1  2    -3.9830394477e-14
 3  1  3     1.6601979462e-13
 3  2  1    -3.8973465423e-14
 3  2  2    -2.4946418825e-03
 3  2  3    -1.6727209627e-13
 3  3  1     1.6681882401e-13
 3  3  2    -1.6900464307e-13
 3  3  3     1.6575002209e-02

   22
0.0000000000e+00 0.0000000000e+00 0.0000000000e+00
-1.9990437153e+00 -1.1541484271e+00 -3.2644247172e+00
     1      1      1
 1  1  1     1.0169624383e-02
 1  1  2     6.7564597397e-02
 1  1  3     1.9103981139e-01
 1  2  1     6.7381014613e-02
 1  2  2     3.2838832177e-03
 1  2  3     1.6036935295e-01
 1  3  1     1.9143110953e-01
 1  3  2     1.6089505847e-01
 1  3  3     4.0162690149e-01
 2  1  1     6.7381014613e-02
 2  1  2     3.2838832177e-03
 2  1  3     1.6036935295e-01
 2  2  1     3.6018579275e-03
 2  2  2    -5.9613628380e-02
 2  2  3     5.8612331770e-03
 2  3  1     1.6089505847e-01
 2  3  2     5.6454988737e-03
 2  3  3     2.3187939968e-01
 3  1  1     1.9143110953e-01
 3  1  2     1.6089505847e-01
 3  1  3     4.0162690149e-01
 3  2  1     1.6089505847e-01
 3  2  2     5.6454988737e-03
 3  2  3     2.3187939968e-01
 3  3  1     4.0120141633e-01
 3  3  2     2.3163374571e-01
 3  3  3     4.8074686126e-01

   23
0.0000000000e+00 0.0000000000e+00 0.0000000000e+00
-1.9990437153e+00 -1.1541484271e+00 -3.2644247172e+00
     1      1      2
 1  1  1    -4.8686881918e+00
 1  1  2    -3.3381240667e+00
 1  1  3     4.7208203277e+00
 1  2  1    -3.3375998051e+00
 1  2  2    -1.6225933814e+00
 1  2  3     2.9403614609e+00
 1  3  1     4.7200789099e+00
 1  3  2     2.9403614609e+00
 1  3  3    -3.7017429092e+00
 2  1  1    -3.3375998051e+00
 2  1  2    -1.6225933814e+00
 2  1  3     2.9403614609e+00
 2  2  1    -1.6235014291e+00
 2  2  2    -4.1014335865e-01
 2  2  3     1.3255833660e+00
 2  3  1     2.9403614609e+00
 2  3  2     1.3248419481e+00
 2  3  3    -2.1372022652e+00
 3  1  1     4.7200789099e+00
 3  1  2     2.9403614609e+00
 3  1  3    -3.7017429092e+00
 3  2  1     2.9403614609e+00
 3  2  2     1.3248419481e+00
 3  2  3    -2.1372022652e+00
 3  3  1    -3.7026509569e+00
 3  3  2    -2.1377265267e+00
 3  3  3     2.2776487809e+00

   24
0.0000000000e+00 0.0000000000e+00 0.0000000000e+00
1.9990437152e+00 -1.1541484271e+00 -3.2644247172e+00
     1      1      1
 1  1  1    -1.0169624366e-02
 1  1  2     6.7564597391e-02
 1  1  3     1.9103981136e-01
 1  2  1     6.7381014606e-02
 1  2  2    -3.2838832193e-03
 1  2  3    -1.6036935295e-01
 1  3  1     1.9143110951e-01
 1  3  2    -1.6089505847e-01
 1  3  3    -4.0162690148e-01
 2  1  1     6.7381014606e-02
 2  1  2    -3.2838832193e-03
 2  1  3    -1.6036935295e-01
 2  2  1    -3.6018579291e-03
 2  2  2    -5.9613628380e-02
 2  2  3     5.8612331771e-03
 2  3  1    -1.6089505847e-01
 2  3  2     5.6454988738e-03
 2  3  3     2.3187939968e-01
 3  1  1     1.9143110951e-01
 3  1  2    -1.6089505847e-01
 3  1  3    -4.0162690148e-01
 3  2  1    -1.6089505847e-01
 3  2  2     5.6454988738e-03
 3  2  3     2.3187939968e-01
 3  3  1    -4.0120141631e-01
 3  3  2     2.3163374571e-01
 3  3  3     4.8074686126e-01

   25
0.0000000000e+00 0.0000000000e+00 0.0000000000e+00
-5.9971311457e+00 -1.1541484271e+00 -3.2644247172e+00
     1      1      2
 1  1  1     4.8686881914e+00
 1  1  2    -3.3381240666e+00
 1  1  3     4.7208203276e+00
 1  2  1    -3.3375998050e+00
 1  2  2     1.6225933815e+00
 1  2  3    -2.9403614609e+00
 1  3  1     4.7200789098e+00
 1  3  2    -2.9403614609e+00
 1  3  3     3.7017429093e+00
 2  1  1    -3.3375998050e+00
 2  1  2     1.6225933815e+00
 2  1  3    -2.9403614609e+00
 2  2  1     1.6235014292e+00
 2  2  2    -4.1014335871e-01
 2  2  3     1.3255833661e+00
 2  3  1    -2.9403614609e+00
 2  3  2     1.3248419482e+00
 2  3  3    -2.1372022653e+00
 3  1  1     4.7200789098e+00
 3  1  2    -2.9403614609e+00
 3  1  3     3.7017429093e+00
 3  2  1    -2.9403614609e+00
 3  2  2     1.3248419482e+00
 3  2  3    -2.1372022653e+00
 3  3  1     3.7026509570e+00
 3  3  2    -2.1377265269e+00
 3  3  3     2.2776487811e+00

   26
0.0000000000e+00 0.0000000000e+00 0.0000000000e+00
-2.7755575616e-16 2.3082968543e+00 -3.2644247172e+00
     1      1      1
 1  1  1     0.0000000000e+00
 1  1  2     6.1325996458e-02
 1  1  3    -8.6728055915e-02
 1  2  1     6.1693162026e-02
 1  2  2     1.7527432952e-12
 1  2  3    -6.2714553725e-13
 1  3  1    -8.7247306442e-02
 1  3  2    -6.1221956441e-13
 1  3  3    -1.7527255121e-12
 2  1  1     6.1693162026e-02
 2  1  2     1.7527541470e-12
 2  1  3    -6.2713700087e-13
 2  2  1     1.7457071024e-12
 2  2  2    -7.7227934506e-02
 2  2  3     2.8362910049e-01
 2  3  1    -6.1718899527e-13
 2  3  2     2.8432391486e-01
 2  3  3    -4.6375879938e-01
 3  1  1    -8.7247306442e-02
 3  1  2    -6.1223770305e-13
 3  1  3    -1.7527363824e-12
 3  2  1    -6.1721568563e-13
 3  2  2     2.8432391486e-01
 3  2  3    -4.6375879938e-01
 3  3  1    -1.7457130338e-12
 3  3  2    -4.6326749143e-01
 3  3  3     4.8074686125e-01

   27
0.0000000000e+00 0.0000000000e+00 0.0000000000e+00
3.9980874304e+00 2.3082968543e+00 -3.2644247172e+00
     1      1      1
 1  1  1     3.5857512745e-02
 1  1  2     3.9660057930e-02
 1  1  3    -5.6087791807e-02
 1  2  1     3.9550105810e-02
 1  2  2     1.1889023363e-02
 1  2  3    -4.0031980212e-02
 1  3  1    -5.5932296028e-02
 1  3  2    -4.0031980212e-02
 1  3  3     4.0195908032e-02
 2  1  1     3.9550105810e-02
 2  1  2     1.1889023363e-02
 2  1  3    -4.0031980212e-02
 2  2  1     1.2079466021e-02
 2  2  2    -1.1983630335e-02
 2  2  3    -9.8628427057e-03
 2  3  1    -4.0031980212e-02
 2  3  2    -9.7073469264e-03
 2  3  3     2.3207118323e-02
 3  1  1    -5.5932296028e-02
 3  1  2    -4.0031980212e-02
 3  1  3     4.0195908032e-02
 3  2  1    -4.0031980212e-02
 3  2  2    -9.7073469264e-03
 3  2  3     2.3207118323e-02
 3  3  1     4.0386350690e-02
 3  3  2     2.3317070443e-02
 3  3  3    -6.1650620029e-03

   28
0.0000000000e+00 0.0000000000e+00 0.0000000000e+00
-3.9980874304e+00 2.3082968543e+00 -3.2644247172e+00
     1      1      1
 1  1  1    -3.5857512742e-02
 1  1  2     3.9660057930e-02
 1  1  3    -5.6087791805e-02
 1  2  1     3.9550105810e-02
 1  2  2    -1.1889023365e-02
 1  2  3     4.0031980213e-02
 1  3  1    -5.5932296026e-02
 1  3  2     4.0031980213e-02
 1  3  3    -4.0195908033e-02
 2  1  1     3.9550105810e-02
 2  1  2    -1.1889023365e-02
 2  1  3     4.0031980213e-02
 2  2  1    -1.2079466023e-02
 2  2  2    -1.1983630335e-02
 2  2  3    -9.8628427068e-03
 2  3  1     4.0031980213e-02
 2  3  2    -9.7073469275e-03
 2  3  3     2.3207118324e-02
 3  1  1    -5.5932296026e-02
 3  1  2     4.0031980213e-02
 3  1  3    -4.0195908033e-02
 3  2  1     4.0031980213e-02
 3  2  2    -9.7073469275e-03
 3  2  3     2.3207118324e-02
 3  3  1    -4.0386350691e-02
 3  3  2     2.3317070444e-02
 3  3  3    -6.1650620047e-03

   29
0.0000000000e+00 0.0000000000e+00 0.0000000000e+00
-3.9980874304e+00 2.3082968543e+00 -3.2644247172e+00
     1      1      2
 1  1  1    -1.7586198985e-14
 1  1  2    -1.6955963942e-03
 1  1  3     1.9746689003e-03
 1  2  1    -1.9197919573e-03
 1  2  2     1.2489801317e-13
 1  2  3    -9.6354584308e-14
 1  3  1     2.0539340018e-03
 1  3  2    -9.0389630735e-14
 1  3  3     5.7098009717e-16
 2  1  1    -1.9197919573e-03
 2  1  2     1.2338551771e-13
 2  1  3    -9.5602547799e-14
 2  2  1     1.2073212329e-13
 2  2  2     1.3083622157e-02
 2  2  3    -6.4416519016e-03
 2  3  1    -9.2294454343e-14
 2  3  2    -6.3623868001e-03
 2  3  3    -2.4071009676e-04
 3  1  1     2.0539340018e-03
 3  1  2    -9.0120261112e-14
 3  1  3     5.5830597062e-16
 3  2  1    -9.3215917791e-14
 3  2  2    -6.3623868001e-03
 3  2  3    -2.4071009676e-04
 3  3  1     3.2337791927e-15
 3  3  2    -1.6514533634e-05
 3  3  3     4.4654665007e-04

   30
0.0000000000e+00 0.0000000000e+00 0.0000000000e+00
-3.9980874305e+00 -4.6165937084e+00 -3.2644247172e+00
     1      1      2
 1  1  1     0.0000000000e+00
 1  1  2    -5.2613710535e-01
 1  1  3    -3.7203511503e-01
 1  2  1    -5.2718562847e-01
 1  2  2     0.0000000000e+00
 1  2  3     0.0000000000e+00
 1  3  1    -3.7277653284e-01
 1  3  2     0.0000000000e+00
 1  3  3     0.0000000000e+00
 2  1  1    -5.2718562847e-01
 2  1  2     0.0000000000e+00
 2  1  3     0.0000000000e+00
 2  2  1     0.0000000000e+00
 2  2  2     8.0226719554e+00
 2  2  3     6.4184388086e+00
 2  3  1     0.0000000000e+00
 2  3  2     6.4176973908e+00
 2  3  3     4.2744045304e+00
 3  1  1    -3.7277653284e-01
 3  1  2     0.0000000000e+00
 3  1  3     0.0000000000e+00
 3  2  1     0.0000000000e+00
 3  2  2     6.4176973908e+00
 3  2  3     4.2744045304e+00
 3  3  1     0.0000000000e+00
 3  3  2     4.2754530535e+00
 3  3  3     2.2776487811e+00

   31
0.0000000000e+00 0.0000000000e+00 0.0000000000e+00
-9.8681618432e-11 -4.6165937084e+00 -3.2644247172e+00
     1      1      1
 1  1  1     0.0000000000e+00
 1  1  2     1.8737809053e-02
 1  1  3     1.3249631846e-02
 1  2  1     1.8957713293e-02
 1  2  2     0.0000000000e+00
 1  2  3     0.0000000000e+00
 1  3  1     1.3405127626e-02
 1  3  2     0.0000000000e+00
 1  3  3     0.0000000000e+00
 2  1  1     1.8957713293e-02
 2  1  2     0.0000000000e+00
 2  1  3     0.0000000000e+00
 2  2  1     0.0000000000e+00
 2  2  2    -7.4090664239e-02
 2  2  3    -7.9200266358e-02
 2  3  1     0.0000000000e+00
 2  3  2    -7.9044770579e-02
 2  3  3    -4.6414236647e-02
 3  1  1     1.3405127626e-02
 3  1  2     0.0000000000e+00
 3  1  3     0.0000000000e+00
 3  2  1     0.0000000000e+00
 3  2  2    -7.9044770579e-02
 3  2  3    -4.6414236647e-02
 3  3  1     0.0000000000e+00
 3  3  2    -4.6634140887e-02
 3  3  3    -6.1650620047e-03

   32
0.0000000000e+00 0.0000000000e+00 0.0000000000e+00
-9.8679953098e-11 -4.6165937084e+00 -3.2644247172e+00
     1      1      2
 1  1  1     7.2996601800e-03
 1  1  2    -6.1342527272e-03
 1  1  3    -4.3375717009e-03
 1  2  1    -6.0221549457e-03
 1  2  2     2.3685003757e-03
 1  2  3     3.6443738104e-03
 1  3  1    -4.2583065994e-03
 1  3  2     3.6443738104e-03
 1  3  3    -2.0846105872e-04
 2  1  1    -6.0221549457e-03
 2  1  2     2.3685003757e-03
 2  1  3     3.6443738104e-03
 2  2  1     2.5626594288e-03
 2  2  2     4.4023984617e-04
 2  2  3    -1.2941130016e-04
 2  3  1     3.6443738104e-03
 2  3  2    -5.0146198658e-05
 2  3  3     1.2035504836e-04
 3  1  1    -4.2583065994e-03
 3  1  2     3.6443738104e-03
 3  1  3    -2.0846105872e-04
 3  2  1     3.6443738104e-03