216  
2    

1    
  0.0300000000000000   0.0000000000000000   0.0000000000000000
  -0.1990783126   -0.0000000000   -0.0000000000
  -0.0035580586   -0.0000000000   -0.0000000000
  -0.0034052037   -0.0000000000   -0.0000000000
   0.0002578436    0.0000097753   -0.0000000000
  -0.0000202357   -0.0000450489   -0.0000000000
  -0.0000200223    0.0000444574   -0.0000000000
   0.0002578436   -0.0000097753   -0.0000000000
  -0.0000202357    0.0000450489   -0.0000000000
  -0.0000200223   -0.0000444574   -0.0000000000
   0.0002578436   -0.0000000000    0.0000097753
  -0.0000202357   -0.0000000000   -0.0000450489
  -0.0000200223   -0.0000000000    0.0000444574
  -0.0000014626    0.0000001776    0.0000001776
   0.0000006700   -0.0000008892   -0.0000008892
   0.0000007926    0.0000009441    0.0000009441
  -0.0000014626   -0.0000001776    0.0000001776
   0.0000006700    0.0000008892   -0.0000008892
   0.0000007926   -0.0000009441    0.0000009441
   0.0002578436   -0.0000000000   -0.0000097753
  -0.0000202357   -0.0000000000    0.0000450489
  -0.0000200223   -0.0000000000   -0.0000444574
  -0.0000014626    0.0000001776   -0.0000001776
   0.0000006700   -0.0000008892    0.0000008892
   0.0000007926    0.0000009441   -0.0000009441
  -0.0000014626   -0.0000001776   -0.0000001776
   0.0000006700    0.0000008892    0.0000008892
   0.0000007926   -0.0000009441   -0.0000009441
   0.0000044139   -0.0000340340   -0.0000340340
  -0.0000248586   -0.0000330795   -0.0000330795
  -0.0000255369    0.0000328250    0.0000328250
  -0.0000048358    0.0000000000    0.0000000799
   0.0000023253    0.0000000000    0.0000019992
   0.0000025105    0.0000000000   -0.0000019509
   0.0000044139    0.0000340340   -0.0000340340
  -0.0000248586    0.0000330795   -0.0000330795
  -0.0000255369   -0.0000328250    0.0000328250
  -0.0000048358    0.0000000799    0.0000000000
   0.0000023253    0.0000019992    0.0000000000
   0.0000025105   -0.0000019509    0.0000000000
  -0.0000049360    0.0000000000    0.0000000000
   0.0000024417    0.0000000000    0.0000000000
   0.0000024943    0.0000000000    0.0000000000
  -0.0000048358   -0.0000000799    0.0000000000
   0.0000023253   -0.0000019992    0.0000000000
   0.0000025105    0.0000019509    0.0000000000
   0.0000044139   -0.0000340340    0.0000340340
  -0.0000248586   -0.0000330795    0.0000330795
  -0.0000255369    0.0000328250   -0.0000328250
  -0.0000048358    0.0000000000   -0.0000000799
   0.0000023253    0.0000000000   -0.0000019992
   0.0000025105    0.0000000000    0.0000019509
   0.0000044139    0.0000340340    0.0000340340
  -0.0000248586    0.0000330795    0.0000330795
  -0.0000255369   -0.0000328250   -0.0000328250
   0.0064925954   -0.0000000000    0.0066087957
  -0.0000717338   -0.0000000000   -0.0000001716
   0.0062627324   -0.0000000000   -0.0062429279
  -0.0000011319   -0.0000327115   -0.0000170260
   0.0000071117   -0.0000000131   -0.0000000053
  -0.0000014114    0.0000331961    0.0000170347
  -0.0000011319    0.0000327115   -0.0000170260
   0.0000071117    0.0000000131   -0.0000000053
  -0.0000014114   -0.0000331961    0.0000170347
  -0.0000080174   -0.0000000000    0.0000000000
   0.0000161207   -0.0000000000    0.0000000000
  -0.0000081033   -0.0000000000    0.0000000000
  -0.0000040894    0.0000019734    0.0000000000
   0.0000081205    0.0000000486    0.0000000000
  -0.0000040312   -0.0000019765    0.0000000000
  -0.0000040894   -0.0000019734    0.0000000000
   0.0000081205   -0.0000000486    0.0000000000
  -0.0000040312    0.0000019765    0.0000000000
   0.0064925954   -0.0000000000   -0.0066087957
  -0.0000717338   -0.0000000000    0.0000001716
   0.0062627324   -0.0000000000    0.0062429279
  -0.0000011319   -0.0000327115    0.0000170260
   0.0000071117   -0.0000000131    0.0000000053
  -0.0000014114    0.0000331961   -0.0000170347
  -0.0000011319    0.0000327115    0.0000170260
   0.0000071117    0.0000000131    0.0000000053
  -0.0000014114   -0.0000331961   -0.0000170347
   0.0064925954    0.0066087957   -0.0000000000
  -0.0000717338   -0.0000001716   -0.0000000000
   0.0062627324   -0.0062429279   -0.0000000000
  -0.0000080174    0.0000000000   -0.0000000000
   0.0000161207    0.0000000000   -0.0000000000
  -0.0000081033    0.0000000000   -0.0000000000
   0.0064925954   -0.0066087957   -0.0000000000
  -0.0000717338    0.0000001716   -0.0000000000
   0.0062627324    0.0062429279   -0.0000000000
  -0.0000011319   -0.0000170260   -0.0000327115
   0.0000071117   -0.0000000053   -0.0000000131
  -0.0000014114    0.0000170347    0.0000331961
  -0.0000040894    0.0000000000    0.0000019734
   0.0000081205    0.0000000000    0.0000000486
  -0.0000040312    0.0000000000   -0.0000019765
  -0.0000011319    0.0000170260   -0.0000327115
   0.0000071117    0.0000000053   -0.0000000131
  -0.0000014114   -0.0000170347    0.0000331961
  -0.0000011319   -0.0000170260    0.0000327115
   0.0000071117   -0.0000000053    0.0000000131
  -0.0000014114    0.0000170347   -0.0000331961
  -0.0000040894    0.0000000000   -0.0000019734
   0.0000081205    0.0000000000   -0.0000000486
  -0.0000040312    0.0000000000    0.0000019765
  -0.0000011319    0.0000170260    0.0000327115
   0.0000071117    0.0000000053    0.0000000131
  -0.0000014114   -0.0000170347   -0.0000331961
  -0.0001624778   -0.0001377757   -0.0001377757
   0.0000773992    0.0000004422    0.0000004422
  -0.0001619597    0.0001351421    0.0001351421
   0.0000031790    0.0000000000    0.0000171304
  -0.0000065096    0.0000000000   -0.0000000258
   0.0000033306    0.0000000000   -0.0000170214
  -0.0001624778    0.0001377757   -0.0001377757
   0.0000773992   -0.0000004422    0.0000004422
  -0.0001619597   -0.0001351421    0.0001351421
   0.0000031790    0.0000171304    0.0000000000
  -0.0000065096   -0.0000000258    0.0000000000
   0.0000033306   -0.0000170214    0.0000000000
   0.0000001558    0.0000000000    0.0000000000
  -0.0000002921    0.0000000000    0.0000000000
   0.0000001363    0.0000000000    0.0000000000
   0.0000031790   -0.0000171304    0.0000000000
  -0.0000065096    0.0000000258    0.0000000000
   0.0000033306    0.0000170214    0.0000000000
  -0.0001624778   -0.0001377757    0.0001377757
   0.0000773992    0.0000004422   -0.0000004422
  -0.0001619597    0.0001351421   -0.0001351421
   0.0000031790    0.0000000000   -0.0000171304
  -0.0000065096    0.0000000000    0.0000000258
   0.0000033306    0.0000000000    0.0000170214
  -0.0001624778    0.0001377757    0.0001377757
   0.0000773992   -0.0000004422   -0.0000004422
  -0.0001619597   -0.0001351421   -0.0001351421
   0.0695261165   -0.0000000000   -0.0000000000
   0.0001412739   -0.0000000000   -0.0000000000
   0.0553608648   -0.0000000000   -0.0000000000
  -0.0000147632    0.0000690267   -0.0000000000
   0.0000348531    0.0000004401   -0.0000000000
  -0.0000141289   -0.0000687525   -0.0000000000
  -0.0000147632   -0.0000690267   -0.0000000000
   0.0000348531   -0.0000004401   -0.0000000000
  -0.0000141289    0.0000687525   -0.0000000000
  -0.0000147632   -0.0000000000    0.0000690267
   0.0000348531   -0.0000000000    0.0000004401
  -0.0000141289   -0.0000000000   -0.0000687525
   0.0000021707    0.0000227931    0.0000227931
  -0.0000045059   -0.0000000228   -0.0000000228
   0.0000023352   -0.0000230474   -0.0000230474
   0.0000021707   -0.0000227931    0.0000227931
  -0.0000045059    0.0000000228   -0.0000000228
   0.0000023352    0.0000230474   -0.0000230474
  -0.0000147632   -0.0000000000   -0.0000690267
   0.0000348531   -0.0000000000   -0.0000004401
  -0.0000141289   -0.0000000000    0.0000687525
   0.0000021707    0.0000227931   -0.0000227931
  -0.0000045059   -0.0000000228    0.0000000228
   0.0000023352   -0.0000230474    0.0000230474
   0.0000021707   -0.0000227931   -0.0000227931
  -0.0000045059    0.0000000228    0.0000000228
   0.0000023352    0.0000230474    0.0000230474
   0.0074765292   -0.0002897692   -0.0000000000
   0.0000824068    0.0000574591   -0.0000000000
   0.0000824959   -0.0000562354   -0.0000000000
  -0.0000312159    0.0000000000   -0.0000000000
   0.0000157048    0.0000000000   -0.0000000000
   0.0000155112    0.0000000000   -0.0000000000
   0.0074765292    0.0002897692   -0.0000000000
   0.0000824068   -0.0000574591   -0.0000000000
   0.0000824959    0.0000562354   -0.0000000000
  -0.0000600920    0.0000001086   -0.0000001196
   0.0000271666    0.0000257060    0.0000436442
   0.0000272457   -0.0000252357   -0.0000432725
   0.0000030109    0.0000000000   -0.0000000956
  -0.0000014910    0.0000000000   -0.0000030834
  -0.0000015199    0.0000000000    0.0000030591
  -0.0000600920   -0.0000001086   -0.0000001196
   0.0000271666   -0.0000257060    0.0000436442
   0.0000272457    0.0000252357   -0.0000432725
  -0.0000600920    0.0000001086    0.0000001196
   0.0000271666    0.0000257060   -0.0000436442
   0.0000272457   -0.0000252357    0.0000432725
   0.0000030109    0.0000000000    0.0000000956
  -0.0000014910    0.0000000000    0.0000030834
  -0.0000015199    0.0000000000   -0.0000030591
  -0.0000600920   -0.0000001086    0.0000001196
   0.0000271666   -0.0000257060   -0.0000436442
   0.0000272457    0.0000252357    0.0000432725
   0.0074765292   -0.0000000000   -0.0002897692
   0.0000824068   -0.0000000000    0.0000574591
   0.0000824959   -0.0000000000   -0.0000562354
  -0.0000600920   -0.0000001196    0.0000001086
   0.0000271666    0.0000436442    0.0000257060
   0.0000272457   -0.0000432725   -0.0000252357
  -0.0000600920    0.0000001196    0.0000001086
   0.0000271666   -0.0000436442    0.0000257060
   0.0000272457    0.0000432725   -0.0000252357
  -0.0000312159   -0.0000000000    0.0000000000
   0.0000157048   -0.0000000000    0.0000000000
   0.0000155112   -0.0000000000    0.0000000000
   0.0000030109   -0.0000000956    0.0000000000
  -0.0000014910   -0.0000030834    0.0000000000
  -0.0000015199    0.0000030591    0.0000000000
   0.0000030109    0.0000000956    0.0000000000
  -0.0000014910    0.0000030834    0.0000000000
  -0.0000015199   -0.0000030591    0.0000000000
   0.0074765292   -0.0000000000    0.0002897692
   0.0000824068   -0.0000000000   -0.0000574591
   0.0000824959   -0.0000000000    0.0000562354
  -0.0000600920   -0.0000001196   -0.0000001086
   0.0000271666    0.0000436442   -0.0000257060
   0.0000272457   -0.0000432725    0.0000252357
  -0.0000600920    0.0000001196   -0.0000001086
   0.0000271666   -0.0000436442   -0.0000257060
   0.0000272457    0.0000432725    0.0000252357

109  
  0.0300000000000000   0.0000000000000000   0.0000000000000000
  -0.0001626112   -0.0001354705   -0.0001354705
  -0.0001618338    0.0001374485    0.0001374485
   0.0000773998   -0.0000003513   -0.0000003513
  -0.0001626112    0.0001354705   -0.0001354705
  -0.0001618338   -0.0001374485    0.0001374485
   0.0000773998    0.0000003513   -0.0000003513
   0.0000033399   -0.0000000000    0.0000170212
   0.0000031695   -0.0000000000   -0.0000171314
  -0.0000065094   -0.0000000000    0.0000000335
  -0.0001626112   -0.0001354705    0.0001354705
  -0.0001618338    0.0001374485   -0.0001374485
   0.0000773998   -0.0000003513    0.0000003513
  -0.0001626112    0.0001354705    0.0001354705
  -0.0001618338   -0.0001374485   -0.0001374485
   0.0000773998    0.0000003513    0.0000003513
   0.0000033399   -0.0000000000   -0.0000170212
   0.0000031695   -0.0000000000    0.0000171314
  -0.0000065094   -0.0000000000   -0.0000000335
   0.0000033399    0.0000170212   -0.0000000000
   0.0000031695   -0.0000171314   -0.0000000000
  -0.0000065094    0.0000000335   -0.0000000000
   0.0000033399   -0.0000170212   -0.0000000000
   0.0000031695    0.0000171314   -0.0000000000
  -0.0000065094   -0.0000000335   -0.0000000000
   0.0000001336   -0.0000000000   -0.0000000000
   0.0000001585   -0.0000000000   -0.0000000000
  -0.0000002921   -0.0000000000   -0.0000000000
   0.0553602631    0.0000000000    0.0000000000
   0.0695267140    0.0000000000    0.0000000000
   0.0001412721    0.0000000000    0.0000000000
  -0.0000143648   -0.0000563374    0.0000000000
  -0.0000145263    0.0000573659    0.0000000000
   0.0000348538    0.0000003527    0.0000000000
  -0.0000143648    0.0000563374    0.0000000000
  -0.0000145263   -0.0000573659    0.0000000000
   0.0000348538   -0.0000003527    0.0000000000
  -0.0000143648    0.0000000000   -0.0000563374
  -0.0000145263    0.0000000000    0.0000573659
   0.0000348538    0.0000000000    0.0000003527
   0.0000023396   -0.0000254901   -0.0000254901
   0.0000021661    0.0000254512    0.0000254512
  -0.0000045057   -0.0000000149   -0.0000000149
   0.0000023396    0.0000254901   -0.0000254901
   0.0000021661   -0.0000254512    0.0000254512
  -0.0000045057    0.0000000149   -0.0000000149
  -0.0000143648    0.0000000000    0.0000563374
  -0.0000145263    0.0000000000   -0.0000573659
   0.0000348538    0.0000000000   -0.0000003527
   0.0000023396   -0.0000254901    0.0000254901
   0.0000021661    0.0000254512   -0.0000254512
  -0.0000045057   -0.0000000149    0.0000000149
   0.0000023396    0.0000254901    0.0000254901
   0.0000021661   -0.0000254512   -0.0000254512
  -0.0000045057    0.0000000149    0.0000000149
   0.0074765280    0.0002893839    0.0000000000
   0.0000828292   -0.0000695605    0.0000000000
   0.0000820886    0.0000682241    0.0000000000
   0.0074765280   -0.0002893839    0.0000000000
   0.0000828292    0.0000695605    0.0000000000
   0.0000820886   -0.0000682241    0.0000000000
  -0.0000312167   -0.0000000000    0.0000000000
   0.0000157207   -0.0000000000    0.0000000000
   0.0000154961   -0.0000000000    0.0000000000
  -0.0000600943   -0.0000002597    0.0000004994
   0.0000272526   -0.0000230882    0.0000436806
   0.0000271605    0.0000227542   -0.0000432369
  -0.0000600943    0.0000002597    0.0000004994
   0.0000272526    0.0000230882    0.0000436806
   0.0000271605   -0.0000227542   -0.0000432369
   0.0000030109   -0.0000000000   -0.0000000958
  -0.0000014843   -0.0000000000   -0.0000030719
  -0.0000015266   -0.0000000000    0.0000030704
  -0.0000600943   -0.0000002597   -0.0000004994
   0.0000272526   -0.0000230882   -0.0000436806
   0.0000271605    0.0000227542    0.0000432369
  -0.0000600943    0.0000002597   -0.0000004994
   0.0000272526    0.0000230882   -0.0000436806
   0.0000271605   -0.0000227542    0.0000432369
   0.0000030109   -0.0000000000    0.0000000958
  -0.0000014843   -0.0000000000    0.0000030719
  -0.0000015266   -0.0000000000   -0.0000030704
   0.0074765280    0.0000000000    0.0002893839
   0.0000828292    0.0000000000   -0.0000695605
   0.0000820886    0.0000000000    0.0000682241
  -0.0000600943    0.0000004994   -0.0000002597
   0.0000272526    0.0000436806   -0.0000230882
   0.0000271605   -0.0000432369    0.0000227542
  -0.0000600943   -0.0000004994   -0.0000002597
   0.0000272526   -0.0000436806   -0.0000230882
   0.0000271605    0.0000432369    0.0000227542
   0.0074765280    0.0000000000   -0.0002893839
   0.0000828292    0.0000000000    0.0000695605
   0.0000820886    0.0000000000   -0.0000682241
  -0.0000600943    0.0000004994    0.0000002597
   0.0000272526    0.0000436806    0.0000230882
   0.0000271605   -0.0000432369   -0.0000227542
  -0.0000600943   -0.0000004994    0.0000002597
   0.0000272526   -0.0000436806    0.0000230882
   0.0000271605    0.0000432369   -0.0000227542
  -0.0000312167    0.0000000000   -0.0000000000
   0.0000157207    0.0000000000   -0.0000000000
   0.0000154961    0.0000000000   -0.0000000000
   0.0000030109   -0.0000000958   -0.0000000000
  -0.0000014843   -0.0000030719   -0.0000000000
  -0.0000015266    0.0000030704   -0.0000000000
   0.0000030109    0.0000000958   -0.0000000000
  -0.0000014843    0.0000030719   -0.0000000000
  -0.0000015266   -0.0000030704   -0.0000000000
  -0.2940077074    0.0000000000    0.0000000000
  -0.0041646294    0.0000000000    0.0000000000
  -0.0051602280    0.0000000000    0.0000000000
   0.0010710996    0.0000151176    0.0000000000
  -0.0000264408   -0.0000484338    0.0000000000
  -0.0000263459    0.0000477234    0.0000000000
   0.0010710996   -0.0000151176    0.0000000000
  -0.0000264408    0.0000484338    0.0000000000
  -0.0000263459   -0.0000477234    0.0000000000
   0.0010710996    0.0000000000    0.0000151176
  -0.0000264408    0.0000000000   -0.0000484338
  -0.0000263459    0.0000000000    0.0000477234
   0.0000056311    0.0000001748    0.0000001748
  -0.0000028430   -0.0000033116   -0.0000033116
  -0.0000027881    0.0000033109    0.0000033109
   0.0000056311   -0.0000001748    0.0000001748
  -0.0000028430    0.0000033116   -0.0000033116
  -0.0000027881   -0.0000033109    0.0000033109
   0.0010710996    0.0000000000   -0.0000151176
  -0.0000264408    0.0000000000    0.0000484338
  -0.0000263459    0.0000000000   -0.0000477234
   0.0000056311    0.0000001748   -0.0000001748
  -0.0000028430   -0.0000033116    0.0000033116
  -0.0000027881    0.0000033109   -0.0000033109
   0.0000056311   -0.0000001748   -0.0000001748
  -0.0000028430    0.0000033116    0.0000033116
  -0.0000027881   -0.0000033109   -0.0000033109
  -0.0044863635    0.0001317479    0.0001317479
   0.0000005502    0.0000183879    0.0000183879
  -0.0000016738   -0.0000189125   -0.0000189125
  -0.0044863635   -0.0001317479    0.0001317479
   0.0000005502   -0.0000183879    0.0000183879
  -0.0000016738    0.0000189125   -0.0000189125
   0.0000040286   -0.0000000000   -0.0000000838
  -0.0000020627   -0.0000000000    0.0000007635
  -0.0000019659   -0.0000000000   -0.0000007706
  -0.0044863635    0.0001317479   -0.0001317479
   0.0000005502    0.0000183879   -0.0000183879
  -0.0000016738   -0.0000189125    0.0000189125
  -0.0044863635   -0.0001317479   -0.0001317479
   0.0000005502   -0.0000183879   -0.0000183879
  -0.0000016738    0.0000189125    0.0000189125
   0.0000040286   -0.0000000000    0.0000000838
  -0.0000020627   -0.0000000000   -0.0000007635
  -0.0000019659   -0.0000000000    0.0000007706
   0.0000040286   -0.0000000838   -0.0000000000
  -0.0000020627    0.0000007635   -0.0000000000
  -0.0000019659   -0.0000007706   -0.0000000000
   0.0000040286    0.0000000838   -0.0000000000
  -0.0000020627   -0.0000007635   -0.0000000000
  -0.0000019659    0.0000007706   -0.0000000000
  -0.0000014928   -0.0000000000   -0.0000000000
   0.0000007384   -0.0000000000   -0.0000000000
   0.0000007544   -0.0000000000   -0.0000000000
   0.0200831711    0.0000000000    0.0243677061
   0.0206304397    0.0000000000   -0.0254430368
  -0.0000895926    0.0000000000    0.0000002160
   0.0000095502    0.0000190471   -0.0000108100
   0.0000098987   -0.0000182684    0.0000106625
  -0.0000033320   -0.0000000575    0.0000000389
   0.0000095502   -0.0000190471   -0.0000108100
   0.0000098987    0.0000182684    0.0000106625
  -0.0000033320    0.0000000575    0.0000000389
   0.0200831711    0.0000000000   -0.0243677061
   0.0206304397    0.0000000000    0.0254430368
  -0.0000895926    0.0000000000   -0.0000002160
   0.0000095502    0.0000190471    0.0000108100
   0.0000098987   -0.0000182684   -0.0000106625
  -0.0000033320   -0.0000000575   -0.0000000389
   0.0000095502   -0.0000190471    0.0000108100
   0.0000098987    0.0000182684   -0.0000106625
  -0.0000033320    0.0000000575   -0.0000000389
  -0.0000025564    0.0000000000   -0.0000000000
  -0.0000023668    0.0000000000   -0.0000000000
   0.0000049232    0.0000000000   -0.0000000000
  -0.0000012335    0.0000007576   -0.0000000000
  -0.0000012366   -0.0000007767   -0.0000000000
   0.0000024702    0.0000000148   -0.0000000000
  -0.0000012335   -0.0000007576   -0.0000000000
  -0.0000012366    0.0000007767   -0.0000000000
   0.0000024702   -0.0000000148   -0.0000000000
   0.0200831711    0.0243677061    0.0000000000
   0.0206304397   -0.0254430368    0.0000000000
  -0.0000895926    0.0000002160    0.0000000000
   0.0200831711   -0.0243677061    0.0000000000
   0.0206304397    0.0254430368    0.0000000000
  -0.0000895926   -0.0000002160    0.0000000000
  -0.0000025564   -0.0000000000    0.0000000000
  -0.0000023668   -0.0000000000    0.0000000000
   0.0000049232   -0.0000000000    0.0000000000
   0.0000095502   -0.0000108100    0.0000190471
   0.0000098987    0.0000106625   -0.0000182684
  -0.0000033320    0.0000000389   -0.0000000575
   0.0000095502    0.0000108100    0.0000190471
   0.0000098987   -0.0000106625   -0.0000182684
  -0.0000033320   -0.0000000389   -0.0000000575
  -0.0000012335   -0.0000000000    0.0000007576
  -0.0000012366   -0.0000000000   -0.0000007767
   0.0000024702   -0.0000000000    0.0000000148
   0.0000095502   -0.0000108100   -0.0000190471
   0.0000098987    0.0000106625    0.0000182684
  -0.0000033320    0.0000000389    0.0000000575
   0.0000095502    0.0000108100   -0.0000190471
   0.0000098987   -0.0000106625    0.0000182684
  -0.0000033320   -0.0000000389    0.0000000575
  -0.0000012335   -0.0000000000   -0.0000007576
  -0.0000012366   -0.0000000000    0.0000007767
   0.0000024702   -0.0000000000   -0.0000000148