nqpoint: 204    
npath: 4      
segment_nqpoint:
- 51
- 51
- 51
- 51
labels:
- [ '$\Gamma$', 'X' ]
- [ 'X', 'K' ]
- [ 'K', '$\Gamma$' ]
- [ '$\Gamma$', 'L' ]
reciprocal_lattice:
- [  -0.17686126,   0.17686126,   0.17686126 ] # a*
- [   0.17686126,  -0.17686126,   0.17686126 ] # b*
- [   0.17686126,   0.17686126,  -0.17686126 ] # c*
natom: 2      
lattice:
- [     0.000000000000000,     2.827074733835000,     2.827074733835000 ] # a
- [     2.827074733835000,     0.000000000000000,     2.827074733835000 ] # b
- [     2.827074733835000,     2.827074733835000,     0.000000000000000 ] # c
points:
- symbol: Na # 1
  coordinates: [  0.000000000000000,  0.000000000000000,  0.000000000000000 ]
  mass: 22.989769
- symbol: Cl # 2
  coordinates: [  0.500000000000000,  0.500000000000000,  0.500000000000000 ]
  mass: 35.453000

phonon:
- q-position: [    0.0001000,    0.0001000,    1.0000000 ]
  distance:    0.0000000
  band:
  - # 1
    frequency:   -0.0066041262
  - # 2
    frequency:   -0.0027780448
  - # 3
    frequency:   -0.0015331045
  - # 4
    frequency:    9.5026404717
  - # 5
    frequency:    9.5026406150
  - # 6
    frequency:   10.9140911007

- q-position: [    0.0100980,    0.0100980,    1.0000000 ]
  distance:    0.0035365
  band:
  - # 1
    frequency:    0.1888287158
  - # 2
    frequency:    0.1888930123
  - # 3
    frequency:    0.3359893423
  - # 4
    frequency:    9.5035219206
  - # 5
    frequency:    9.5035220611
  - # 6
    frequency:   10.9082472808

- q-position: [    0.0200960,    0.0200960,    1.0000000 ]
  distance:    0.0070730
  band:
  - # 1
    frequency:    0.3756920898
  - # 2
    frequency:    0.3757229863
  - # 3
    frequency:    0.6685133901
  - # 4
    frequency:    9.5061264619
  - # 5
    frequency:    9.5061265996
  - # 6
    frequency:   10.8909932952

- q-position: [    0.0300940,    0.0300940,    1.0000000 ]
  distance:    0.0106096
  band:
  - # 1
    frequency:    0.5620554464
  - # 2
    frequency:    0.5620751995
  - # 3
    frequency:    1.0006510286
  - # 4
    frequency:    9.5104386493
  - # 5
    frequency:    9.5104387842
  - # 6
    frequency:   10.8624723664

- q-position: [    0.0400920,    0.0400920,    1.0000000 ]
  distance:    0.0141461
  band:
  - # 1
    frequency:    0.7477116614
  - # 2
    frequency:    0.7477258698
  - # 3
    frequency:    1.3322215553
  - # 4
    frequency:    9.5164329766
  - # 5
    frequency:    9.5164331089
  - # 6
    frequency:   10.8229219409

- q-position: [    0.0500900,    0.0500900,    1.0000000 ]
  distance:    0.0176826
  band:
  - # 1
    frequency:    0.9324364377
  - # 2
    frequency:    0.9324473450
  - # 3
    frequency:    1.6630335590
  - # 4
    frequency:    9.5240741273
  - # 5
    frequency:    9.5240742569
  - # 6
    frequency:   10.7726727358

- q-position: [    0.0600880,    0.0600880,    1.0000000 ]
  distance:    0.0212191
  band:
  - # 1
    frequency:    1.1160048950
  - # 2
    frequency:    1.1160136232
  - # 3
    frequency:    1.9928896089
  - # 4
    frequency:    9.5333173183
  - # 5
    frequency:    9.5333174454
  - # 6
    frequency:   10.7121473689

- q-position: [    0.0700860,    0.0700860,    1.0000000 ]
  distance:    0.0247556
  band:
  - # 1
    frequency:    1.2981944885
  - # 2
    frequency:    1.2982016778
  - # 3
    frequency:    2.3215859923
  - # 4
    frequency:    9.5441087318
  - # 5
    frequency:    9.5441088564
  - # 6
    frequency:   10.6418585320

- q-position: [    0.0800840,    0.0800840,    1.0000000 ]
  distance:    0.0282921
  band:
  - # 1
    frequency:    1.4787861842
  - # 2
    frequency:    1.4787922343
  - # 3
    frequency:    2.6489118830
  - # 4
    frequency:    9.5563860283
  - # 5
    frequency:    9.5563861505
  - # 6
    frequency:   10.5624066581

- q-position: [    0.0900820,    0.0900820,    1.0000000 ]
  distance:    0.0318287
  band:
  - # 1
    frequency:    1.6575652251
  - # 2
    frequency:    1.6575704015
  - # 3
    frequency:    2.9746484385
  - # 4
    frequency:    9.5700789337
  - # 5
    frequency:    9.5700790535
  - # 6
    frequency:   10.4744770192

- q-position: [    0.1000800,    0.1000800,    1.0000000 ]
  distance:    0.0353652
  band:
  - # 1
    frequency:    1.8343217499
  - # 2
    frequency:    1.8343262378
  - # 3
    frequency:    3.2985679252
  - # 4
    frequency:    9.5851098898
  - # 5
    frequency:    9.5851100073
  - # 6
    frequency:   10.3788361821

- q-position: [    0.1100780,    0.1100780,    1.0000000 ]
  distance:    0.0389017
  band:
  - # 1
    frequency:    2.0088513367
  - # 2
    frequency:    2.0088552703
  - # 3
    frequency:    3.6204328972
  - # 4
    frequency:    9.6013947603
  - # 5
    frequency:    9.6013948755
  - # 6
    frequency:   10.2763277352

- q-position: [    0.1200760,    0.1200760,    1.0000000 ]
  distance:    0.0424382
  band:
  - # 1
    frequency:    2.1809554912
  - # 2
    frequency:    2.1809589707
  - # 3
    frequency:    3.9399954262
  - # 4
    frequency:    9.6188435805
  - # 5
    frequency:    9.6188436936
  - # 6
    frequency:   10.1678671970

- q-position: [    0.1300740,    0.1300740,    1.0000000 ]
  distance:    0.0459747
  band:
  - # 1
    frequency:    2.3504420866
  - # 2
    frequency:    2.3504451886
  - # 3
    frequency:    4.2569963626
  - # 4
    frequency:    9.6373613413
  - # 5
    frequency:    9.6373614524
  - # 6
    frequency:   10.0544360129

- q-position: [    0.1400720,    0.1400720,    1.0000000 ]
  distance:    0.0495112
  band:
  - # 1
    frequency:    2.5171257562
  - # 2
    frequency:    2.5171285405
  - # 3
    frequency:    4.5711645879
  - # 4
    frequency:    9.6568487957
  - # 5
    frequency:    9.6568489047
  - # 6
    frequency:    9.9370745547

- q-position: [    0.1500700,    0.1500700,    1.0000000 ]
  distance:    0.0530478
  band:
  - # 1
    frequency:    2.6808282392
  - # 2
    frequency:    2.6808307534
  - # 3
    frequency:    4.8822161857
  - # 4
    frequency:    9.6772032772
  - # 5
    frequency:    9.6772033843
  - # 6
    frequency:    9.8168740686

- q-position: [    0.1600680,    0.1600680,    1.0000000 ]
  distance:    0.0565843
  band:
  - # 1
    frequency:    2.8413786782
  - # 2
    frequency:    2.8413809607
  - # 3
    frequency:    5.1898534068
  - # 4
    frequency:    9.6949675725
  - # 5
    frequency:    9.6983195214
  - # 6
    frequency:    9.6983196267

- q-position: [    0.1700660,    0.1700660,    1.0000000 ]
  distance:    0.0601208
  band:
  - # 1
    frequency:    2.9986138680
  - # 2
    frequency:    2.9986159501
  - # 3
    frequency:    5.4937632096
  - # 4
    frequency:    9.5725198167
  - # 5
    frequency:    9.7200904778
  - # 6
    frequency:    9.7200905812

- q-position: [    0.1800640,    0.1800640,    1.0000000 ]
  distance:    0.0636573
  band:
  - # 1
    frequency:    3.1523784544
  - # 2
    frequency:    3.1523803620
  - # 3
    frequency:    5.7936149775
  - # 4
    frequency:    9.4507166348
  - # 5
    frequency:    9.7424081051
  - # 6
    frequency:    9.7424082068

- q-position: [    0.1900620,    0.1900620,    1.0000000 ]
  distance:    0.0671938
  band:
  - # 1
    frequency:    3.3025250838
  - # 2
    frequency:    3.3025268386
  - # 3
    frequency:    6.0890566686
  - # 4
    frequency:    9.3307544159
  - # 5
    frequency:    9.7651641399
  - # 6
    frequency:    9.7651642400

- q-position: [    0.2000600,    0.2000600,    1.0000000 ]
  distance:    0.0707304
  band:
  - # 1
    frequency:    3.4489145033
  - # 2
    frequency:    3.4489161235
  - # 3
    frequency:    6.3797079068
  - # 4
    frequency:    9.2138312484
  - # 5
    frequency:    9.7882508312
  - # 6
    frequency:    9.7882509298

- q-position: [    0.2100580,    0.2100580,    1.0000000 ]
  distance:    0.0742669
  band:
  - # 1
    frequency:    3.5914156110
  - # 2
    frequency:    3.5914171121
  - # 3
    frequency:    6.6651468528
  - # 4
    frequency:    9.1011430592
  - # 5
    frequency:    9.8115616334
  - # 6
    frequency:    9.8115617304

- q-position: [    0.2200560,    0.2200560,    1.0000000 ]
  distance:    0.0778034
  band:
  - # 1
    frequency:    3.7299054585
  - # 2
    frequency:    3.7299068540
  - # 3
    frequency:    6.9448835574
  - # 4
    frequency:    8.9938923293
  - # 5
    frequency:    9.8349918516
  - # 6
    frequency:    9.8349919472

- q-position: [    0.2300540,    0.2300540,    1.0000000 ]
  distance:    0.0813399
  band:
  - # 1
    frequency:    3.8642692074
  - # 2
    frequency:    3.8642705085
  - # 3
    frequency:    7.2183011789
  - # 4
    frequency:    8.8933284212
  - # 5
    frequency:    9.8584392348
  - # 6
    frequency:    9.8584393290

- q-position: [    0.2400520,    0.2400520,    1.0000000 ]
  distance:    0.0848764
  band:
  - # 1
    frequency:    3.9944000390
  - # 2
    frequency:    3.9944012558
  - # 3
    frequency:    7.4845110239
  - # 4
    frequency:    8.8008741206
  - # 5
    frequency:    9.8818045114
  - # 6
    frequency:    9.8818046043

- q-position: [    0.2500500,    0.2500500,    1.0000000 ]
  distance:    0.0884129
  band:
  - # 1
    frequency:    4.1201990233
  - # 2
    frequency:    4.1202001644
  - # 3
    frequency:    7.7419355169
  - # 4
    frequency:    8.7185249734
  - # 5
    frequency:    9.9049918647
  - # 6
    frequency:    9.9049919564

- q-position: [    0.2600480,    0.2600480,    1.0000000 ]
  distance:    0.0919495
  band:
  - # 1
    frequency:    4.2415749458
  - # 2
    frequency:    4.2415760188
  - # 3
    frequency:    7.9868166254
  - # 4
    frequency:    8.6503246833
  - # 5
    frequency:    9.9279093456
  - # 6
    frequency:    9.9279094361

- q-position: [    0.2700460,    0.2700460,    1.0000000 ]
  distance:    0.0954860
  band:
  - # 1
    frequency:    4.3584440977
  - # 2
    frequency:    4.3584451093
  - # 3
    frequency:    8.2061398901
  - # 4
    frequency:    8.6094272635
  - # 5
    frequency:    9.9504692216
  - # 6
    frequency:    9.9504693110

- q-position: [    0.2800440,    0.2800440,    1.0000000 ]
  distance:    0.0990225
  band:
  - # 1
    frequency:    4.4707300318
  - # 2
    frequency:    4.4707309880
  - # 3
    frequency:    8.3474906917
  - # 4
    frequency:    8.6482301384
  - # 5
    frequency:    9.9725882608
  - # 6
    frequency:    9.9725883491

- q-position: [    0.2900420,    0.2900420,    1.0000000 ]
  distance:    0.1025590
  band:
  - # 1
    frequency:    4.5783632868
  - # 2
    frequency:    4.5783641929
  - # 3
    frequency:    8.3689652387
  - # 4
    frequency:    8.8084564538
  - # 5
    frequency:    9.9941879528
  - # 6
    frequency:    9.9941880401

- q-position: [    0.3000400,    0.3000400,    1.0000000 ]
  distance:    0.1060955
  band:
  - # 1
    frequency:    4.6812810842
  - # 2
    frequency:    4.6812819449
  - # 3
    frequency:    8.3481493935
  - # 4
    frequency:    9.0121740527
  - # 5
    frequency:   10.0151946660
  - # 6
    frequency:   10.0151947524

- q-position: [    0.3100380,    0.3100380,    1.0000000 ]
  distance:    0.1096321
  band:
  - # 1
    frequency:    4.7794270021
  - # 2
    frequency:    4.7794278217
  - # 3
    frequency:    8.3232890993
  - # 4
    frequency:    9.2206276926
  - # 5
    frequency:   10.0355397449
  - # 6
    frequency:   10.0355398304

- q-position: [    0.3200360,    0.3200360,    1.0000000 ]
  distance:    0.1131686
  band:
  - # 1
    frequency:    4.8727506284
  - # 2
    frequency:    4.8727514107
  - # 3
    frequency:    8.3026846546
  - # 4
    frequency:    9.4248523250
  - # 5
    frequency:   10.0551595496
  - # 6
    frequency:   10.0551596343

- q-position: [    0.3300340,    0.3300340,    1.0000000 ]
  distance:    0.1167051
  band:
  - # 1
    frequency:    4.9612071985
  - # 2
    frequency:    4.9612079470
  - # 3
    frequency:    8.2883837546
  - # 4
    frequency:    9.6219922855
  - # 5
    frequency:   10.0739954411
  - # 6
    frequency:   10.0739955250

- q-position: [    0.3400320,    0.3400320,    1.0000000 ]
  distance:    0.1202416
  band:
  - # 1
    frequency:    5.0447572215
  - # 2
    frequency:    5.0447579394
  - # 3
    frequency:    8.2807471757
  - # 4
    frequency:    9.8107520182
  - # 5
    frequency:   10.0919937165
  - # 6
    frequency:   10.0919937997

- q-position: [    0.3500300,    0.3500300,    1.0000000 ]
  distance:    0.1237781
  band:
  - # 1
    frequency:    5.1233660981
  - # 2
    frequency:    5.1233667882
  - # 3
    frequency:    8.2794985239
  - # 4
    frequency:    9.9903661877
  - # 5
    frequency:   10.1091054995
  - # 6
    frequency:   10.1091055821

- q-position: [    0.3600280,    0.3600280,    1.0000000 ]
  distance:    0.1273146
  band:
  - # 1
    frequency:    5.1970037350
  - # 2
    frequency:    5.1970044000
  - # 3
    frequency:    8.2840537461
  - # 4
    frequency:   10.1252865903
  - # 5
    frequency:   10.1252866723
  - # 6
    frequency:   10.1602926017

- q-position: [    0.3700260,    0.3700260,    1.0000000 ]
  distance:    0.1308512
  band:
  - # 1
    frequency:    5.2656441598
  - # 2
    frequency:    5.2656448023
  - # 3
    frequency:    8.2936567270
  - # 4
    frequency:   10.1404972818
  - # 5
    frequency:   10.1404973631
  - # 6
    frequency:   10.3201006758

- q-position: [    0.3800240,    0.3800240,    1.0000000 ]
  distance:    0.1343877
  band:
  - # 1
    frequency:    5.3292651400
  - # 2
    frequency:    5.3292657621
  - # 3
    frequency:    8.3074504971
  - # 4
    frequency:   10.1547021467
  - # 5
    frequency:   10.1547022276
  - # 6
    frequency:   10.4694249769

- q-position: [    0.3900220,    0.3900220,    1.0000000 ]
  distance:    0.1379242
  band:
  - # 1
    frequency:    5.3878478095
  - # 2
    frequency:    5.3878484134
  - # 3
    frequency:    8.3245230811
  - # 4
    frequency:   10.1678698039
  - # 5
    frequency:   10.1678698843
  - # 6
    frequency:   10.6079439639

- q-position: [    0.4000200,    0.4000200,    1.0000000 ]
  distance:    0.1414607
  band:
  - # 1
    frequency:    5.4413763075
  - # 2
    frequency:    5.4413768952
  - # 3
    frequency:    8.3439415298
  - # 4
    frequency:   10.1799726675
  - # 5
    frequency:   10.1799727474
  - # 6
    frequency:   10.7353696513

- q-position: [    0.4100180,    0.4100180,    1.0000000 ]
  distance:    0.1449972
  band:
  - # 1
    frequency:    5.4898374319
  - # 2
    frequency:    5.4898380052
  - # 3
    frequency:    8.3647793311
  - # 4
    frequency:   10.1909866872
  - # 5
    frequency:   10.1909867667
  - # 6
    frequency:   10.8514424327

- q-position: [    0.4200160,    0.4200160,    1.0000000 ]
  distance:    0.1485337
  band:
  - # 1
    frequency:    5.5332203111
  - # 2
    frequency:    5.5332208718
  - # 3
    frequency:    8.3861393524
  - # 4
    frequency:   10.2008910864
  - # 5
    frequency:   10.2008911655
  - # 6
    frequency:   10.9559285027

- q-position: [    0.4300140,    0.4300140,    1.0000000 ]
  distance:    0.1520703
  band:
  - # 1
    frequency:    5.5715160976
  - # 2
    frequency:    5.5715166474
  - # 3
    frequency:    8.4071732907
  - # 4
    frequency:   10.2096681019
  - # 5
    frequency:   10.2096681808
  - # 6
    frequency:   11.0486186493

- q-position: [    0.4400120,    0.4400120,    1.0000000 ]
  distance:    0.1556068
  band:
  - # 1
    frequency:    5.6047176854
  - # 2
    frequency:    5.6047182259
  - # 3
    frequency:    8.4270981415
  - # 4
    frequency:   10.2173027347
  - # 5
    frequency:   10.2173028133
  - # 6
    frequency:   11.1293277850

- q-position: [    0.4500100,    0.4500100,    1.0000000 ]
  distance:    0.1591433
  band:
  - # 1
    frequency:    5.6328194550
  - # 2
    frequency:    5.6328199877
  - # 3
    frequency:    8.4452100100
  - # 4
    frequency:   10.2237825137
  - # 5
    frequency:   10.2237825921
  - # 6
    frequency:   11.1978948772

- q-position: [    0.4600080,    0.4600080,    1.0000000 ]
  distance:    0.1626798
  band:
  - # 1
    frequency:    5.6558170466
  - # 2
    frequency:    5.6558175730
  - # 3
    frequency:    8.4608955200
  - # 4
    frequency:   10.2290972808
  - # 5
    frequency:   10.2290973591
  - # 6
    frequency:   11.2541830843

- q-position: [    0.4700060,    0.4700060,    1.0000000 ]
  distance:    0.1662163
  band:
  - # 1
    frequency:    5.6737071654
  - # 2
    frequency:    5.6737076869
  - # 3
    frequency:    8.4736410409
  - # 4
    frequency:   10.2332390003
  - # 5
    frequency:   10.2332390784
  - # 6
    frequency:   11.2980799818

- q-position: [    0.4800040,    0.4800040,    1.0000000 ]
  distance:    0.1697529
  band:
  - # 1
    frequency:    5.6864874196
  - # 2
    frequency:    5.6864879376
  - # 3
    frequency:    8.4830399334
  - # 4
    frequency:   10.2362015968
  - # 5
    frequency:   10.2362016748
  - # 6
    frequency:   11.3294978116

- q-position: [    0.4900020,    0.4900020,    1.0000000 ]
  distance:    0.1732894
  band:
  - # 1
    frequency:    5.6941561927
  - # 2
    frequency:    5.6941567087
  - # 3
    frequency:    8.4887979878
  - # 4
    frequency:   10.2379808257
  - # 5
    frequency:   10.2379809036
  - # 6
    frequency:   11.3483737083

- q-position: [    0.5000000,    0.5000000,    1.0000000 ]
  distance:    0.1768259
  band:
  - # 1
    frequency:    5.6967125520
  - # 2
    frequency:    5.6967130674
  - # 3
    frequency:    8.4907371989
  - # 4
    frequency:   10.2385741785
  - # 5
    frequency:   10.2385742564
  - # 6
    frequency:   11.3546698776

- q-position: [    0.5000000,    0.5000000,    1.0000000 ]
  distance:    0.1768259
  band:
  - # 1
    frequency:    5.6967125520
  - # 2
    frequency:    5.6967130674
  - # 3
    frequency:    8.4907371989
  - # 4
    frequency:   10.2385741785
  - # 5
    frequency:   10.2385742564
  - # 6
    frequency:   11.3546698776

- q-position: [    0.4975000,    0.4975000,    0.9950000 ]
  distance:    0.1780765
  band:
  - # 1
    frequency:    5.6969487045
  - # 2
    frequency:    5.6975404573
  - # 3
    frequency:    8.4904897604
  - # 4
    frequency:   10.2381906231
  - # 5
    frequency:   10.2385563270
  - # 6
    frequency:   11.3545333699

- q-position: [    0.4950000,    0.4950000,    0.9900000 ]
  distance:    0.1793271
  band:
  - # 1
    frequency:    5.6976555115
  - # 2
    frequency:    5.7000228527
  - # 3
    frequency:    8.4897474334
  - # 4
    frequency:   10.2370398090
  - # 5
    frequency:   10.2385025860
  - # 6
    frequency:   11.3541239062

- q-position: [    0.4925000,    0.4925000,    0.9850000 ]
  distance:    0.1805777
  band:
  - # 1
    frequency:    5.6988332440
  - # 2
    frequency:    5.7041559465
  - # 3
    frequency:    8.4885101874
  - # 4
    frequency:   10.2351220751
  - # 5
    frequency:   10.2384124178
  - # 6
    frequency:   11.3534416840

- q-position: [    0.4900000,    0.4900000,    0.9800000 ]
  distance:    0.1818283
  band:
  - # 1
    frequency:    5.7004814929
  - # 2
    frequency:    5.7099334379
  - # 3
    frequency:    8.4867779714
  - # 4
    frequency:   10.2324378563
  - # 5
    frequency:   10.2382849270
  - # 6
    frequency:   11.3524870321

- q-position: [    0.4875000,    0.4875000,    0.9750000 ]
  distance:    0.1830789
  band:
  - # 1
    frequency:    5.7025996822
  - # 2
    frequency:    5.7173465442
  - # 3
    frequency:    8.4845507145
  - # 4
    frequency:   10.2289877613
  - # 5
    frequency:   10.2381188614
  - # 6
    frequency:   11.3512604104

- q-position: [    0.4850000,    0.4850000,    0.9700000 ]
  distance:    0.1843295
  band:
  - # 1
    frequency:    5.7051870649
  - # 2
    frequency:    5.7263840400
  - # 3
    frequency:    8.4818283260
  - # 4
    frequency:   10.2247725733
  - # 5
    frequency:   10.2379126133
  - # 6
    frequency:   11.3497624093

- q-position: [    0.4825000,    0.4825000,    0.9650000 ]
  distance:    0.1855801
  band:
  - # 1
    frequency:    5.7082427192
  - # 2
    frequency:    5.7370323051
  - # 3
    frequency:    8.4786106956
  - # 4
    frequency:   10.2197932492
  - # 5
    frequency:   10.2376642214
  - # 6
    frequency:   11.3479937488

- q-position: [    0.4800000,    0.4800000,    0.9600000 ]
  distance:    0.1868307
  band:
  - # 1
    frequency:    5.7117655427
  - # 2
    frequency:    5.7492753830
  - # 3
    frequency:    8.4748976940
  - # 4
    frequency:   10.2140509206
  - # 5
    frequency:   10.2373713724
  - # 6
    frequency:   11.3459552778

- q-position: [    0.4775000,    0.4775000,    0.9550000 ]
  distance:    0.1880813
  band:
  - # 1
    frequency:    5.7157542463
  - # 2
    frequency:    5.7630950483
  - # 3
    frequency:    8.4706891735
  - # 4
    frequency:   10.2075468934
  - # 5
    frequency:   10.2370314040
  - # 6
    frequency:   11.3436479731

- q-position: [    0.4750000,    0.4750000,    0.9500000 ]
  distance:    0.1893319
  band:
  - # 1
    frequency:    5.7202073473
  - # 2
    frequency:    5.7784708823
  - # 3
    frequency:    8.4659849683
  - # 4
    frequency:   10.2002826479
  - # 5
    frequency:   10.2366413075
  - # 6
    frequency:   11.3410729379

- q-position: [    0.4725000,    0.4725000,    0.9450000 ]
  distance:    0.1905825
  band:
  - # 1
    frequency:    5.7251231612
  - # 2
    frequency:    5.7953803564
  - # 3
    frequency:    8.4607848955
  - # 4
    frequency:   10.1922598395
  - # 5
    frequency:   10.2361977308
  - # 6
    frequency:   11.3382314009

- q-position: [    0.4700000,    0.4700000,    0.9400000 ]
  distance:    0.1918331
  band:
  - # 1
    frequency:    5.7304997937
  - # 2
    frequency:    5.8137989220
  - # 3
    frequency:    8.4550887554
  - # 4
    frequency:   10.1834802986
  - # 5
    frequency:   10.2356969827
  - # 6
    frequency:   11.3351247146

- q-position: [    0.4675000,    0.4675000,    0.9350000 ]
  distance:    0.1930837
  band:
  - # 1
    frequency:    5.7363351312
  - # 2
    frequency:    5.8337001066
  - # 3
    frequency:    8.4488963328
  - # 4
    frequency:   10.1739460310
  - # 5
    frequency:   10.2351350358
  - # 6
    frequency:   11.3317543537

- q-position: [    0.4650000,    0.4650000,    0.9300000 ]
  distance:    0.1943343
  band:
  - # 1
    frequency:    5.7426268314
  - # 2
    frequency:    5.8550556145
  - # 3
    frequency:    8.4422073977
  - # 4
    frequency:   10.1636592182
  - # 5
    frequency:   10.2345075318
  - # 6
    frequency:   11.3281219132

- q-position: [    0.4625000,    0.4625000,    0.9250000 ]
  distance:    0.1955849
  band:
  - # 1
    frequency:    5.7493723128
  - # 2
    frequency:    5.8778354319
  - # 3
    frequency:    8.4350217061
  - # 4
    frequency:   10.1526222179
  - # 5
    frequency:   10.2338097857
  - # 6
    frequency:   11.3242291067

- q-position: [    0.4600000,    0.4600000,    0.9200000 ]
  distance:    0.1968355
  band:
  - # 1
    frequency:    5.7565687446
  - # 2
    frequency:    5.9020079352
  - # 3
    frequency:    8.4273390013
  - # 4
    frequency:   10.1408375643
  - # 5
    frequency:   10.2330367907
  - # 6
    frequency:   11.3200777642

- q-position: [    0.4575000,    0.4575000,    0.9150000 ]
  distance:    0.1980861
  band:
  - # 1
    frequency:    5.7642130354
  - # 2
    frequency:    5.9275400012
  - # 3
    frequency:    8.4191590152
  - # 4
    frequency:   10.1283079690
  - # 5
    frequency:   10.2321832242
  - # 6
    frequency:   11.3156698299

- q-position: [    0.4550000,    0.4550000,    0.9100000 ]
  distance:    0.1993367
  band:
  - # 1
    frequency:    5.7723018225
  - # 2
    frequency:    5.9543971193
  - # 3
    frequency:    8.4104814688
  - # 4
    frequency:   10.1150363213
  - # 5
    frequency:   10.2312434528
  - # 6
    frequency:   11.3110073600

- q-position: [    0.4525000,    0.4525000,    0.9050000 ]
  distance:    0.2005872
  band:
  - # 1
    frequency:    5.7808314607
  - # 2
    frequency:    5.9825435035
  - # 3
    frequency:    8.4013060745
  - # 4
    frequency:   10.1010256891
  - # 5
    frequency:   10.2302115390
  - # 6
    frequency:   11.3060925201

- q-position: [    0.4500000,    0.4500000,    0.9000000 ]
  distance:    0.2018378
  band:
  - # 1
    frequency:    5.7897980109
  - # 2
    frequency:    6.0119422054
  - # 3
    frequency:    8.3916325366
  - # 4
    frequency:   10.0862793199
  - # 5
    frequency:   10.2290812475
  - # 6
    frequency:   11.3009275830

- q-position: [    0.4475000,    0.4475000,    0.8950000 ]
  distance:    0.2030884
  band:
  - # 1
    frequency:    5.7991972287
  - # 2
    frequency:    6.0425552252
  - # 3
    frequency:    8.3814605533
  - # 4
    frequency:   10.0708006414
  - # 5
    frequency:   10.2278460518
  - # 6
    frequency:   11.2955149252

- q-position: [    0.4450000,    0.4450000,    0.8900000 ]
  distance:    0.2043390
  band:
  - # 1
    frequency:    5.8090245541
  - # 2
    frequency:    6.0743436219
  - # 3
    frequency:    8.3707898180
  - # 4
    frequency:   10.0545932630
  - # 5
    frequency:   10.2264991416
  - # 6
    frequency:   11.2898570252

- q-position: [    0.4425000,    0.4425000,    0.8850000 ]
  distance:    0.2055896
  band:
  - # 1
    frequency:    5.8192750997
  - # 2
    frequency:    6.1072676210
  - # 3
    frequency:    8.3596200209
  - # 4
    frequency:   10.0376609770
  - # 5
    frequency:   10.2250334303
  - # 6
    frequency:   11.2839564597

- q-position: [    0.4400000,    0.4400000,    0.8800000 ]
  distance:    0.2068402
  band:
  - # 1
    frequency:    5.8299436407
  - # 2
    frequency:    6.1412867197
  - # 3
    frequency:    8.3479508508
  - # 4
    frequency:   10.0200077599
  - # 5
    frequency:   10.2234415626
  - # 6
    frequency:   11.2778159010

- q-position: [    0.4375000,    0.4375000,    0.8750000 ]
  distance:    0.2080908
  band:
  - # 1
    frequency:    5.8410246048
  - # 2
    frequency:    6.1763597894
  - # 3
    frequency:    8.3357819968
  - # 4
    frequency:   10.0016377743
  - # 5
    frequency:   10.2217159229
  - # 6
    frequency:   11.2714381138

- q-position: [    0.4350000,    0.4350000,    0.8700000 ]
  distance:    0.2093414
  band:
  - # 1
    frequency:    5.8525120618
  - # 2
    frequency:    6.2124451738
  - # 3
    frequency:    8.3231131501
  - # 4
    frequency:    9.9825553706
  - # 5
    frequency:   10.2198486437
  - # 6
    frequency:   11.2648259521

- q-position: [    0.4325000,    0.4325000,    0.8650000 ]
  distance:    0.2105920
  band:
  - # 1
    frequency:    5.8643997149
  - # 2
    frequency:    6.2495007838
  - # 3
    frequency:    8.3099440058
  - # 4
    frequency:    9.9627650894
  - # 5
    frequency:   10.2178316146
  - # 6
    frequency:   11.2579823558

- q-position: [    0.4300000,    0.4300000,    0.8600000 ]
  distance:    0.2118426
  band:
  - # 1
    frequency:    5.8766808915
  - # 2
    frequency:    6.2874841889
  - # 3
    frequency:    8.2962742650
  - # 4
    frequency:    9.9422716636
  - # 5
    frequency:   10.2156564911
  - # 6
    frequency:   11.2509103475

- q-position: [    0.4275000,    0.4275000,    0.8550000 ]
  distance:    0.2130932
  band:
  - # 1
    frequency:    5.8893485355
  - # 2
    frequency:    6.3263527028
  - # 3
    frequency:    8.2821036370
  - # 4
    frequency:    9.9210800215
  - # 5
    frequency:   10.2133147049
  - # 6
    frequency:   11.2436130289

- q-position: [    0.4250000,    0.4250000,    0.8500000 ]
  distance:    0.2143438
  band:
  - # 1
    frequency:    5.9023951991
  - # 2
    frequency:    6.3660634662
  - # 3
    frequency:    8.2674318410
  - # 4
    frequency:    9.8991952897
  - # 5
    frequency:   10.2107974727
  - # 6
    frequency:   11.2360935774

- q-position: [    0.4225000,    0.4225000,    0.8450000 ]
  distance:    0.2155944
  band:
  - # 1
    frequency:    5.9158130362
  - # 2
    frequency:    6.4065735242
  - # 3
    frequency:    8.2522586082
  - # 4
    frequency:    9.8766227968
  - # 5
    frequency:   10.2080958076
  - # 6
    frequency:   11.2283552426

- q-position: [    0.4200000,    0.4200000,    0.8400000 ]
  distance:    0.2168450
  band:
  - # 1
    frequency:    5.9295937961
  - # 2
    frequency:    6.4478398990
  - # 3
    frequency:    8.2365836846
  - # 4
    frequency:    9.8533680771
  - # 5
    frequency:   10.2052005286
  - # 6
    frequency:   11.2204013428

- q-position: [    0.4175000,    0.4175000,    0.8350000 ]
  distance:    0.2180956
  band:
  - # 1
    frequency:    5.9437288179
  - # 2
    frequency:    6.4898196591
  - # 3
    frequency:    8.2204068326
  - # 4
    frequency:    9.8294368752
  - # 5
    frequency:   10.2021022724
  - # 6
    frequency:   11.2122352609

- q-position: [    0.4150000,    0.4150000,    0.8300000 ]
  distance:    0.2193462
  band:
  - # 1
    frequency:    5.9582090251
  - # 2
    frequency:    6.5324699827
  - # 3
    frequency:    8.2037278335
  - # 4
    frequency:    9.8048351513
  - # 5
    frequency:   10.1987915042
  - # 6
    frequency:   11.2038604416

- q-position: [    0.4125000,    0.4125000,    0.8250000 ]
  distance:    0.2205968
  band:
  - # 1
    frequency:    5.9730249216
  - # 2
    frequency:    6.5757482175
  - # 3
    frequency:    8.1865464899
  - # 4
    frequency:    9.7795690865
  - # 5
    frequency:   10.1952585296
  - # 6
    frequency:   11.1952803866

- q-position: [    0.4100000,    0.4100000,    0.8200000 ]
  distance:    0.2218474
  band:
  - # 1
    frequency:    5.9881665875
  - # 2
    frequency:    6.6196119357
  - # 3
    frequency:    8.1688626279
  - # 4
    frequency:    9.7536450893
  - # 5
    frequency:   10.1914935067
  - # 6
    frequency:   11.1864986521

- q-position: [    0.4075000,    0.4075000,    0.8150000 ]
  distance:    0.2230980
  band:
  - # 1
    frequency:    6.0036236760
  - # 2
    frequency:    6.6640189850
  - # 3
    frequency:    8.1506760999
  - # 4
    frequency:    9.7270698029
  - # 5
    frequency:   10.1874864589
  - # 6
    frequency:   11.1775188440

- q-position: [    0.4050000,    0.4050000,    0.8100000 ]