nqpoint: 404    
npath: 4      
segment_nqpoint:
- 101
- 101
- 101
- 101
labels:
- [ '$\Gamma$', 'X' ]
- [ 'X', 'K' ]
- [ 'K', '$\Gamma$' ]
- [ '$\Gamma$', 'L' ]
reciprocal_lattice:
- [  -0.17686126,   0.17686126,   0.17686126 ] # a*
- [   0.17686126,  -0.17686126,   0.17686126 ] # b*
- [   0.17686126,   0.17686126,  -0.17686126 ] # c*
natom: 2      
lattice:
- [     0.000000000000000,     2.827074733835000,     2.827074733835000 ] # a
- [     2.827074733835000,     0.000000000000000,     2.827074733835000 ] # b
- [     2.827074733835000,     2.827074733835000,     0.000000000000000 ] # c
points:
- symbol: Na # 1
  coordinates: [  0.000000000000000,  0.000000000000000,  0.000000000000000 ]
  mass: 22.989769
- symbol: Cl # 2
  coordinates: [  0.500000000000000,  0.500000000000000,  0.500000000000000 ]
  mass: 35.450000

phonon:
- q-position: [    0.0001000,    0.0001000,    1.0000000 ]
  distance:    0.0000000
  band:
  - # 1
    frequency:   -0.0066042957
    eigenvector:
    - # atom 1
      - [ -0.38302423416491,  0.00000000000000 ]
      - [ -0.38302423407517,  0.00000000000000 ]
      - [  0.31619222814205,  0.00000000000001 ]
    - # atom 2
      - [  0.47562750358109,  0.00000000000000 ]
      - [  0.47562750346965, -0.00000000000000 ]
      - [ -0.39263762274714, -0.00000000000001 ]
  - # 2
    frequency:   -0.0027781161
    eigenvector:
    - # atom 1
      - [  0.44350454957749, -0.00000000000000 ]
      - [ -0.44350455066992,  0.00000000000001 ]
      - [ -0.00000000119747,  0.00000000000001 ]
    - # atom 2
      - [ -0.55073016375760, -0.00000000000000 ]
      - [  0.55073016511415, -0.00000000000001 ]
      - [  0.00000000148698, -0.00000000000001 ]
  - # 3
    frequency:   -0.0015331439
    eigenvector:
    - # atom 1
      - [ -0.22358164617573,  0.00000000000000 ]
      - [ -0.22358164416247,  0.00000000000002 ]
      - [ -0.54167800563317,  0.00000000000000 ]
    - # atom 2
      - [  0.27763674577504,  0.00000000000000 ]
      - [  0.27763674327503, -0.00000000000002 ]
      - [  0.67263891522815, -0.00000000000000 ]
  - # 4
    frequency:    9.5027986400
    eigenvector:
    - # atom 1
      - [  0.55073014333136,  0.00000000000000 ]
      - [  0.55073013106846,  0.00000000000001 ]
      - [ -0.00000002480184,  0.00000000000000 ]
    - # atom 2
      - [  0.44350458888215,  0.00000000000000 ]
      - [  0.44350457900680,  0.00000000000001 ]
      - [ -0.00000007572033, -0.00000000000000 ]
  - # 5
    frequency:    9.5027987834
    eigenvector:
    - # atom 1
      - [  0.55073015830443, -0.00000000000000 ]
      - [ -0.55073017056733, -0.00000000000001 ]
      - [ -0.00000000000000,  0.00000000000000 ]
    - # atom 2
      - [  0.44350454518603,  0.00000000000000 ]
      - [ -0.44350455506138, -0.00000000000001 ]
      - [ -0.00000000000000,  0.00000000000000 ]
  - # 6
    frequency:   10.9142727622
    eigenvector:
    - # atom 1
      - [ -0.00000005139186,  0.00000000000000 ]
      - [ -0.00000005139186,  0.00000000000000 ]
      - [ -0.77885005814716,  0.00000000008039 ]
    - # atom 2
      - [ -0.00000001150313,  0.00000000000000 ]
      - [ -0.00000001150313,  0.00000000000000 ]
      - [ -0.62721016168758,  0.00000000006474 ]

- q-position: [    0.0050990,    0.0050990,    1.0000000 ]
  distance:    0.0017683
  band:
  - # 1
    frequency:    0.0952254485
    eigenvector:
    - # atom 1
      - [  0.44351227278290,  0.00000000000000 ]
      - [  0.44351227300582,  0.00000000000007 ]
      - [ -0.00055577130350, -0.00000000000000 ]
    - # atom 2
      - [ -0.55072358865235, -0.00000000000000 ]
      - [ -0.55072358892916, -0.00000000000009 ]
      - [  0.00069007338678,  0.00000000000000 ]
  - # 2
    frequency:    0.0953558665
    eigenvector:
    - # atom 1
      - [  0.44351241402301,  0.00000000000000 ]
      - [ -0.44351241380008, -0.00000000000007 ]
      - [ -0.00000000000030,  0.00000000000000 ]
    - # atom 2
      - [ -0.55072383175127, -0.00000000000000 ]
      - [  0.55072383147446,  0.00000000000009 ]
      - [  0.00000000000037, -0.00000000000000 ]
  - # 3
    frequency:    0.1696236642
    eigenvector:
    - # atom 1
      - [ -0.00039295056644,  0.00000000000000 ]
      - [ -0.00039295056621,  0.00000000000000 ]
      - [ -0.62721824554708, -0.00000000000193 ]
    - # atom 2
      - [  0.00048798705250, -0.00000000000000 ]
      - [  0.00048798705222, -0.00000000000000 ]
      - [  0.77884304411725,  0.00000000000239 ]
  - # 4
    frequency:    9.5030234197
    eigenvector:
    - # atom 1
      - [  0.55072380341217,  0.00000000000000 ]
      - [  0.55072380656649,  0.00000000000064 ]
      - [ -0.00000002379141,  0.00000000000000 ]
    - # atom 2
      - [  0.44351244570072,  0.00000000000000 ]
      - [  0.44351244824097,  0.00000000000051 ]
      - [ -0.00000007334424, -0.00000000000000 ]
  - # 5
    frequency:    9.5030235616
    eigenvector:
    - # atom 1
      - [ -0.55072383319002,  0.00000000000000 ]
      - [  0.55072383003570,  0.00000000000064 ]
      - [  0.00000000000000,  0.00000000000000 ]
    - # atom 2
      - [ -0.44351241518167, -0.00000000000000 ]
      - [  0.44351241264142,  0.00000000000051 ]
      - [  0.00000000000000, -0.00000000000000 ]
  - # 6
    frequency:   10.9127823558
    eigenvector:
    - # atom 1
      - [  0.00000004972980,  0.00000000000000 ]
      - [  0.00000004972980,  0.00000000000000 ]
      - [  0.77884334982787, -0.00000000007701 ]
    - # atom 2
      - [  0.00000001100068, -0.00000000000000 ]
      - [  0.00000001100068, -0.00000000000000 ]
      - [  0.62721849177850, -0.00000000006202 ]

- q-position: [    0.0100980,    0.0100980,    1.0000000 ]
  distance:    0.0035365
  band:
  - # 1
    frequency:    0.1888335620
    eigenvector:
    - # atom 1
      - [  0.44353541281728,  0.00000000000000 ]
      - [  0.44353541323166,  0.00000000000015 ]
      - [ -0.00013783631329, -0.00000000000000 ]
    - # atom 2
      - [ -0.55070528685808, -0.00000000000000 ]
      - [ -0.55070528737258, -0.00000000000019 ]
      - [  0.00017109650299,  0.00000000000000 ]
  - # 2
    frequency:    0.1888978602
    eigenvector:
    - # atom 1
      - [ -0.44353539161489,  0.00000000000000 ]
      - [  0.44353539120052,  0.00000000000015 ]
      - [  0.00000000000007, -0.00000000000000 ]
    - # atom 2
      - [  0.55070532669673,  0.00000000000000 ]
      - [ -0.55070532618223, -0.00000000000019 ]
      - [ -0.00000000000009,  0.00000000000000 ]
  - # 3
    frequency:    0.3359979656
    eigenvector:
    - # atom 1
      - [ -0.00009742694625,  0.00000000000000 ]
      - [ -0.00009742694624,  0.00000000000000 ]
      - [ -0.62724286386460, -0.00000000000319 ]
    - # atom 2
      - [  0.00012101413886, -0.00000000000000 ]
      - [  0.00012101413885, -0.00000000000000 ]
      - [  0.77882369086852,  0.00000000000396 ]
  - # 4
    frequency:    9.5036801256
    eigenvector:
    - # atom 1
      - [  0.55070529720469,  0.00000000000000 ]
      - [  0.55070530361809,  0.00000000000128 ]
      - [ -0.00000002292273,  0.00000000000000 ]
    - # atom 2
      - [  0.44353542114221,  0.00000000000000 ]
      - [  0.44353542630753,  0.00000000000103 ]
      - [ -0.00000007116042, -0.00000000000000 ]
  - # 5
    frequency:    9.5036802661
    eigenvector:
    - # atom 1
      - [ -0.55070532964618,  0.00000000000000 ]
      - [  0.55070532323278,  0.00000000000128 ]
      - [  0.00000000000000, -0.00000000000000 ]
    - # atom 2
      - [ -0.44353539399037, -0.00000000000000 ]
      - [  0.44353538882504,  0.00000000000103 ]
      - [  0.00000000000000, -0.00000000000000 ]
  - # 6
    frequency:   10.9084288640
    eigenvector:
    - # atom 1
      - [  0.00000004821763,  0.00000000000000 ]
      - [  0.00000004821763, -0.00000000000000 ]
      - [  0.77882370966226, -0.00000000006422 ]
    - # atom 2
      - [  0.00000001057438, -0.00000000000000 ]
      - [  0.00000001057438, -0.00000000000000 ]
      - [  0.62724287900933, -0.00000000005172 ]

- q-position: [    0.0150970,    0.0150970,    1.0000000 ]
  distance:    0.0053048
  band:
  - # 1
    frequency:    0.2823196297
    eigenvector:
    - # atom 1
      - [  0.44357348469592,  0.00000000000000 ]
      - [  0.44357348554750,  0.00000000000023 ]
      - [ -0.00005998074838, -0.00000000000000 ]
    - # atom 2
      - [ -0.55067463909901, -0.00000000000000 ]
      - [ -0.55067464015620, -0.00000000000029 ]
      - [  0.00007441957451,  0.00000000000000 ]
  - # 2
    frequency:    0.2823616788
    eigenvector:
    - # atom 1
      - [ -0.44357345597778,  0.00000000000000 ]
      - [  0.44357345512621,  0.00000000000023 ]
      - [  0.00000000000000,  0.00000000000000 ]
    - # atom 2
      - [  0.55067466812250,  0.00000000000000 ]
      - [ -0.55067466706531, -0.00000000000029 ]
      - [ -0.00000000000001, -0.00000000000000 ]
  - # 3
    frequency:    0.5023022858
    eigenvector:
    - # atom 1
      - [ -0.00004237574724,  0.00000000000000 ]
      - [ -0.00004237574732, -0.00000000000000 ]
      - [ -0.62728342395297, -0.00000000000330 ]
    - # atom 2
      - [  0.00005265242634, -0.00000000000000 ]
      - [  0.00005265242643,  0.00000000000000 ]
      - [  0.77879104829080,  0.00000000000410 ]
  - # 4
    frequency:    9.5047677823
    eigenvector:
    - # atom 1
      - [  0.55067464295730,  0.00000000000000 ]
      - [  0.55067464133224,  0.00000000000193 ]
      - [ -0.00000002218525,  0.00000000000000 ]
    - # atom 2
      - [  0.44357348780035,  0.00000000000000 ]
      - [  0.44357348649134,  0.00000000000155 ]
      - [ -0.00000006915625, -0.00000000000000 ]
  - # 5
    frequency:    9.5047679214
    eigenvector:
    - # atom 1
      - [ -0.55067466678138,  0.00000000000000 ]
      - [  0.55067466840644,  0.00000000000193 ]
      - [  0.00000000000000,  0.00000000000000 ]
    - # atom 2
      - [ -0.44357345489749, -0.00000000000000 ]
      - [  0.44357345620649,  0.00000000000155 ]
      - [ -0.00000000000000, -0.00000000000000 ]
  - # 6
    frequency:   10.9012213107
    eigenvector:
    - # atom 1
      - [  0.00000004684519,  0.00000000000000 ]
      - [  0.00000004684519,  0.00000000000000 ]
      - [  0.77879105184648, -0.00000000006754 ]
    - # atom 2
      - [  0.00000001021852, -0.00000000000000 ]
      - [  0.00000001021852, -0.00000000000000 ]
      - [  0.62728342682064, -0.00000000005440 ]

- q-position: [    0.0200960,    0.0200960,    1.0000000 ]
  distance:    0.0070730
  band:
  - # 1
    frequency:    0.3757017293
    eigenvector:
    - # atom 1
      - [  0.44362659213479,  0.00000000000000 ]
      - [  0.44362659146554,  0.00000000000031 ]
      - [ -0.00003293581630, -0.00000000000000 ]
    - # atom 2
      - [ -0.55063186080078, -0.00000000000000 ]
      - [ -0.55063185997010, -0.00000000000039 ]
      - [  0.00004083761460,  0.00000000000000 ]
  - # 2
    frequency:    0.3757326266
    eigenvector:
    - # atom 1
      - [ -0.44362656118610,  0.00000000000000 ]
      - [  0.44362656185535,  0.00000000000031 ]
      - [ -0.00000000000006, -0.00000000000000 ]
    - # atom 2
      - [  0.55063188561497,  0.00000000000000 ]
      - [ -0.55063188644565, -0.00000000000039 ]
      - [  0.00000000000008,  0.00000000000000 ]
  - # 3
    frequency:    0.6685305443
    eigenvector:
    - # atom 1
      - [ -0.00002325303718,  0.00000000000000 ]
      - [ -0.00002325303723,  0.00000000000000 ]
      - [ -0.62734030695443, -0.00000000000504 ]
    - # atom 2
      - [  0.00002890563890, -0.00000000000000 ]
      - [  0.00002890563897, -0.00000000000000 ]
      - [  0.77874523209959,  0.00000000000625 ]
  - # 4
    frequency:    9.5062847753
    eigenvector:
    - # atom 1
      - [  0.55063186459267,  0.00000000000000 ]
      - [  0.55063185769562,  0.00000000000259 ]
      - [ -0.00000002157036,  0.00000000000000 ]
    - # atom 2
      - [  0.44362659518794,  0.00000000000000 ]
      - [  0.44362658963121,  0.00000000000209 ]
      - [ -0.00000006732094, -0.00000000000000 ]
  - # 5
    frequency:    9.5062849130
    eigenvector:
    - # atom 1
      - [ -0.55063188258179,  0.00000000000000 ]
      - [  0.55063188947884,  0.00000000000259 ]
      - [  0.00000000000000, -0.00000000000000 ]
    - # atom 2
      - [ -0.44362655874236, -0.00000000000000 ]
      - [  0.44362656429909,  0.00000000000209 ]
      - [ -0.00000000000000, -0.00000000000000 ]
  - # 6
    frequency:   10.8911746474
    eigenvector:
    - # atom 1
      - [  0.00000004560383,  0.00000000000000 ]
      - [  0.00000004560383, -0.00000000000000 ]
      - [  0.77874523317035, -0.00000000006494 ]
    - # atom 2
      - [  0.00000000992852, -0.00000000000000 ]
      - [  0.00000000992852, -0.00000000000000 ]
      - [  0.62734030781901, -0.00000000005232 ]

- q-position: [    0.0250950,    0.0250950,    1.0000000 ]
  distance:    0.0088413
  band:
  - # 1
    frequency:    0.4689603876
    eigenvector:
    - # atom 1
      - [  0.44369467678011,  0.00000000000000 ]
      - [  0.44369467671915,  0.00000000000040 ]
      - [ -0.00002055707570, -0.00000000000000 ]
    - # atom 2
      - [ -0.55057700036424, -0.00000000000000 ]
      - [ -0.55057700028861, -0.00000000000050 ]
      - [  0.00002546758510,  0.00000000000000 ]
  - # 2
    frequency:    0.4689845946
    eigenvector:
    - # atom 1
      - [ -0.44369464675443,  0.00000000000000 ]
      - [  0.44369464681538,  0.00000000000040 ]
      - [ -0.00000000000001, -0.00000000000000 ]
    - # atom 2
      - [  0.55057702492274,  0.00000000000000 ]
      - [ -0.55057702499837, -0.00000000000050 ]
      - [  0.00000000000001,  0.00000000000000 ]
  - # 3
    frequency:    0.8346628171
    eigenvector:
    - # atom 1
      - [ -0.00001450083817,  0.00000000000000 ]
      - [ -0.00001450083818,  0.00000000000000 ]
      - [ -0.62741376510742, -0.00000000000841 ]
    - # atom 2
      - [  0.00001803667435, -0.00000000000000 ]
      - [  0.00001803667436, -0.00000000000000 ]
      - [  0.77868605116731,  0.00000000001043 ]
  - # 4
    frequency:    9.5082288551
    eigenvector:
    - # atom 1
      - [  0.55057699234032,  0.00000000000000 ]
      - [  0.55057700890340,  0.00000000000326 ]
      - [ -0.00000002107119,  0.00000000000000 ]
    - # atom 2
      - [  0.44369467031273,  0.00000000000000 ]
      - [  0.44369468366045,  0.00000000000263 ]
      - [ -0.00000006564542, -0.00000000000000 ]
  - # 5
    frequency:    9.5082289914
    eigenvector:
    - # atom 1
      - [ -0.55057703324210,  0.00000000000000 ]
      - [  0.55057701667902,  0.00000000000326 ]
      - [  0.00000000000000, -0.00000000000000 ]
    - # atom 2
      - [ -0.44369465345877, -0.00000000000000 ]
      - [  0.44369464011104,  0.00000000000263 ]
      - [  0.00000000000000, -0.00000000000000 ]
  - # 6
    frequency:   10.8783097378
    eigenvector:
    - # atom 1
      - [  0.00000004448634,  0.00000000000000 ]
      - [  0.00000004448634, -0.00000000000000 ]
      - [  0.77868605158378, -0.00000000006643 ]
    - # atom 2
      - [  0.00000000970079, -0.00000000000000 ]
      - [  0.00000000970078, -0.00000000000000 ]
      - [  0.62741376544420, -0.00000000005353 ]

- q-position: [    0.0300940,    0.0300940,    1.0000000 ]
  distance:    0.0106096
  band:
  - # 1
    frequency:    0.5620698612
    eigenvector:
    - # atom 1
      - [  0.44377766108234,  0.00000000000000 ]
      - [  0.44377766014776,  0.00000000000049 ]
      - [ -0.00001391815685, -0.00000000000000 ]
    - # atom 2
      - [ -0.55051011646659, -0.00000000000000 ]
      - [ -0.55051011530724, -0.00000000000061 ]
      - [  0.00001722500258,  0.00000000000000 ]
  - # 2
    frequency:    0.5620896148
    eigenvector:
    - # atom 1
      - [ -0.44377763072426,  0.00000000000000 ]
      - [  0.44377763165884,  0.00000000000049 ]
      - [ -0.00000000000000, -0.00000000000000 ]
    - # atom 2
      - [  0.55051013924884,  0.00000000000000 ]
      - [ -0.55051014040820, -0.00000000000061 ]
      - [  0.00000000000001,  0.00000000000000 ]
  - # 3
    frequency:    1.0006766968
    eigenvector:
    - # atom 1
      - [ -0.00000980725619,  0.00000000000000 ]
      - [ -0.00000980725618,  0.00000000000000 ]
      - [ -0.62750411618523, -0.00000000001029 ]
    - # atom 2
      - [  0.00001220761713, -0.00000000000000 ]
      - [  0.00001220761711, -0.00000000000000 ]
      - [  0.77861324396659,  0.00000000001276 ]
  - # 4
    frequency:    9.5105971425
    eigenvector:
    - # atom 1
      - [  0.55051011350889,  0.00000000000000 ]
      - [  0.55051011853564,  0.00000000000394 ]
      - [ -0.00000002068251,  0.00000000000000 ]
    - # atom 2
      - [  0.44377765869734,  0.00000000000000 ]
      - [  0.44377766274950,  0.00000000000318 ]
      - [ -0.00000006412223, -0.00000000000000 ]
  - # 5
    frequency:    9.5105972774
    eigenvector:
    - # atom 1
      - [ -0.55051014234190,  0.00000000000000 ]
      - [  0.55051013731515,  0.00000000000394 ]
      - [  0.00000000000000, -0.00000000000000 ]
    - # atom 2
      - [ -0.44377763321763, -0.00000000000000 ]
      - [  0.44377762916546,  0.00000000000318 ]
      - [  0.00000000000000, -0.00000000000000 ]
  - # 6
    frequency:   10.8626533381
    eigenvector:
    - # atom 1
      - [  0.00000004348679,  0.00000000000000 ]
      - [  0.00000004348679, -0.00000000000000 ]
      - [  0.77861324415712, -0.00000000006181 ]
    - # atom 2
      - [  0.00000000953270, -0.00000000000000 ]
      - [  0.00000000953270, -0.00000000000000 ]
      - [  0.62750411633958, -0.00000000004982 ]

- q-position: [    0.0350930,    0.0350930,    1.0000000 ]
  distance:    0.0123778
  band:
  - # 1
    frequency:    0.6550026837
    eigenvector:
    - # atom 1
      - [  0.44387544594960,  0.00000000000000 ]
      - [  0.44387544583357,  0.00000000000058 ]
      - [ -0.00000996931825, -0.00000000000000 ]
    - # atom 2
      - [ -0.55043127499092, -0.00000000000000 ]
      - [ -0.55043127484703, -0.00000000000072 ]
      - [  0.00001232279751,  0.00000000000000 ]
  - # 2
    frequency:    0.6550192644
    eigenvector:
    - # atom 1
      - [ -0.44387541701005,  0.00000000000000 ]
      - [  0.44387541712608,  0.00000000000058 ]
      - [ -0.00000000000000,  0.00000000000000 ]
    - # atom 2
      - [  0.55043129820483,  0.00000000000000 ]
      - [ -0.55043129834872, -0.00000000000072 ]
      - [  0.00000000000000, -0.00000000000000 ]
  - # 3
    frequency:    1.1665489129
    eigenvector:
    - # atom 1
      - [ -0.00000701580090,  0.00000000000000 ]
      - [ -0.00000701580090, -0.00000000000000 ]
      - [ -0.62761175338953, -0.00000000001068 ]
    - # atom 2
      - [  0.00000874060256, -0.00000000000000 ]
      - [  0.00000874060256,  0.00000000000000 ]
      - [  0.77852648429972,  0.00000000001324 ]
  - # 4
    frequency:    9.5133861359
    eigenvector:
    - # atom 1
      - [  0.55043127762619,  0.00000000000000 ]
      - [  0.55043127235056,  0.00000000000463 ]
      - [ -0.00000002040066,  0.00000000000000 ]
    - # atom 2
      - [  0.44387544807420,  0.00000000000000 ]
      - [  0.44387544381986,  0.00000000000373 ]
      - [ -0.00000006274539, -0.00000000000000 ]
  - # 5
    frequency:    9.5133862695
    eigenvector:
    - # atom 1
      - [ -0.55043129563896,  0.00000000000000 ]
      - [  0.55043130091459,  0.00000000000463 ]
      - [ -0.00000000000000,  0.00000000000000 ]
    - # atom 2
      - [ -0.44387541494089, -0.00000000000000 ]
      - [  0.44387541919523,  0.00000000000373 ]
      - [ -0.00000000000000, -0.00000000000000 ]
  - # 6
    frequency:   10.8442380699
    eigenvector:
    - # atom 1
      - [  0.00000004260053,  0.00000000000000 ]
      - [  0.00000004260053,  0.00000000000000 ]
      - [  0.77852648439724, -0.00000000003789 ]
    - # atom 2
      - [  0.00000000942254, -0.00000000000000 ]
      - [  0.00000000942254, -0.00000000000000 ]
      - [  0.62761175346871, -0.00000000003055 ]

- q-position: [    0.0400920,    0.0400920,    1.0000000 ]
  distance:    0.0141461
  band:
  - # 1
    frequency:    0.7477308258
    eigenvector:
    - # atom 1
      - [  0.44398791746764,  0.00000000000000 ]
      - [  0.44398791765534,  0.00000000000068 ]
      - [ -0.00000744244235, -0.00000000000000 ]
    - # atom 2
      - [ -0.55034055716573, -0.00000000000000 ]
      - [ -0.55034055739839, -0.00000000000084 ]
      - [  0.00000918626531,  0.00000000000000 ]
  - # 2
    frequency:    0.7477450346
    eigenvector:
    - # atom 1
      - [  0.44398788944362,  0.00000000000000 ]
      - [ -0.44398788925592, -0.00000000000068 ]
      - [ -0.00000000000000, -0.00000000000000 ]
    - # atom 2
      - [ -0.55034058022172, -0.00000000000000 ]
      - [  0.55034057998906,  0.00000000000084 ]
      - [  0.00000000000000,  0.00000000000000 ]
  - # 3
    frequency:    1.3322557123
    eigenvector:
    - # atom 1
      - [  0.00000522978026,  0.00000000000000 ]
      - [  0.00000522978026,  0.00000000000000 ]
      - [  0.62773714999099,  0.00000000001090 ]
    - # atom 2
      - [ -0.00000652214435,  0.00000000000000 ]
      - [ -0.00000652214435, -0.00000000000000 ]
      - [ -0.77842537881380, -0.00000000001351 ]
  - # 4
    frequency:    9.5165917200
    eigenvector:
    - # atom 1
      - [  0.55034054794493,  0.00000000000000 ]
      - [  0.55034056669648,  0.00000000000533 ]
      - [ -0.00000002022357,  0.00000000000000 ]
    - # atom 2
      - [  0.44398791002837,  0.00000000000000 ]
      - [  0.44398792515621,  0.00000000000430 ]
      - [ -0.00000006151044, -0.00000000000000 ]
  - # 5
    frequency:    9.5165918522
    eigenvector:
    - # atom 1
      - [  0.55034058948116, -0.00000000000000 ]
      - [ -0.55034057072961, -0.00000000000533 ]
      - [ -0.00000000000000, -0.00000000000000 ]
    - # atom 2
      - [  0.44398789691369,  0.00000000000000 ]
      - [ -0.44398788178586, -0.00000000000430 ]
      - [ -0.00000000000000,  0.00000000000000 ]
  - # 6
    frequency:   10.8231023876
    eigenvector:
    - # atom 1
      - [ -0.00000004182414,  0.00000000000000 ]
      - [ -0.00000004182414, -0.00000000000000 ]
      - [ -0.77842537886801,  0.00000000003856 ]
    - # atom 2
      - [ -0.00000000936950,  0.00000000000000 ]
      - [ -0.00000000936949,  0.00000000000000 ]
      - [ -0.62773715003511,  0.00000000003110 ]

- q-position: [    0.0450910,    0.0450910,    1.0000000 ]
  distance:    0.0159143
  band:
  - # 1
    frequency:    0.8402260970
    eigenvector:
    - # atom 1
      - [  0.44411494326746,  0.00000000000000 ]
      - [  0.44411494340132,  0.00000000000078 ]
      - [ -0.00000573502781, -0.00000000000000 ]
    - # atom 2
      - [ -0.55023805482211, -0.00000000000000 ]
      - [ -0.55023805498796, -0.00000000000096 ]
      - [  0.00000706724264,  0.00000000000000 ]
  - # 2
    frequency:    0.8402384682
    eigenvector:
    - # atom 1
      - [  0.44411491579745,  0.00000000000000 ]
      - [ -0.44411491566358, -0.00000000000078 ]
      - [ -0.00000000000001,  0.00000000000000 ]
    - # atom 2
      - [ -0.55023807730557, -0.00000000000000 ]
      - [  0.55023807713972,  0.00000000000096 ]
      - [  0.00000000000001, -0.00000000000000 ]
  - # 3
    frequency:    1.4977729622
    eigenvector:
    - # atom 1
      - [  0.00000402316381,  0.00000000000000 ]
      - [  0.00000402316380, -0.00000000000000 ]
      - [  0.62788086425233,  0.00000000001439 ]
    - # atom 2
      - [ -0.00000502320919,  0.00000000000000 ]
      - [ -0.00000502320918,  0.00000000000000 ]
      - [ -0.77830946301771, -0.00000000001783 ]
  - # 4
    frequency:    9.5202091753
    eigenvector:
    - # atom 1
      - [  0.55023805805051,  0.00000000000000 ]
      - [  0.55023805180540,  0.00000000000604 ]
      - [ -0.00000002015071,  0.00000000000000 ]
    - # atom 2
      - [  0.44411494587293,  0.00000000000000 ]
      - [  0.44411494083230,  0.00000000000487 ]
      - [ -0.00000006041442, -0.00000000000000 ]
  - # 5
    frequency:    9.5202093062
    eigenvector:
    - # atom 1
      - [  0.55023807410009, -0.00000000000000 ]
      - [ -0.55023808034520, -0.00000000000604 ]
      - [  0.00000000000000,  0.00000000000000 ]
    - # atom 2
      - [  0.44411491321020,  0.00000000000000 ]
      - [ -0.44411491825083, -0.00000000000487 ]
      - [  0.00000000000000,  0.00000000000000 ]
  - # 6
    frequency:   10.7992905391
    eigenvector:
    - # atom 1
      - [ -0.00000004115544,  0.00000000000000 ]
      - [ -0.00000004115544,  0.00000000000000 ]
      - [ -0.77830946304980,  0.00000000005305 ]
    - # atom 2
      - [ -0.00000000937366,  0.00000000000000 ]
      - [ -0.00000000937366,  0.00000000000000 ]
      - [ -0.62788086427851,  0.00000000004280 ]

- q-position: [    0.0500900,    0.0500900,    1.0000000 ]
  distance:    0.0176826
  band:
  - # 1
    frequency:    0.9324603180
    eigenvector:
    - # atom 1
      - [  0.44425637365165,  0.00000000000000 ]
      - [  0.44425637403292,  0.00000000000088 ]
      - [ -0.00000453166379, -0.00000000000000 ]
    - # atom 2
      - [ -0.55012387151893, -0.00000000000000 ]
      - [ -0.55012387199105, -0.00000000000109 ]
      - [  0.00000557406593,  0.00000000000000 ]
  - # 2
    frequency:    0.9324712256
    eigenvector:
    - # atom 1
      - [  0.44425634702696,  0.00000000000000 ]
      - [ -0.44425634664569, -0.00000000000088 ]
      - [ -0.00000000000000, -0.00000000000000 ]
    - # atom 2
      - [ -0.55012389382336, -0.00000000000000 ]
      - [  0.55012389335123,  0.00000000000109 ]
      - [  0.00000000000001,  0.00000000000000 ]
  - # 3
    frequency:    1.6630761707
    eigenvector:
    - # atom 1
      - [  0.00000317292457,  0.00000000000000 ]
      - [  0.00000317292457,  0.00000000000000 ]
      - [  0.62804354522246,  0.00000000001461 ]
    - # atom 2
      - [ -0.00000396684735,  0.00000000000000 ]
      - [ -0.00000396684734, -0.00000000000000 ]
      - [ -0.77817819633603, -0.00000000001811 ]
  - # 4
    frequency:    9.5242331903
    eigenvector:
    - # atom 1
      - [  0.55012387285117,  0.00000000000000 ]
      - [  0.55012387068741,  0.00000000000675 ]
      - [ -0.00000002018328,  0.00000000000000 ]
    - # atom 2
      - [  0.44425637472730,  0.00000000000000 ]
      - [  0.44425637297994,  0.00000000000545 ]
      - [ -0.00000005945594, -0.00000000000000 ]
  - # 5
    frequency:    9.5242333199
    eigenvector:
    - # atom 1
      - [  0.55012389250541, -0.00000000000000 ]
      - [ -0.55012389466918, -0.00000000000675 ]
      - [ -0.00000000000000, -0.00000000000000 ]
    - # atom 2
      - [  0.44425634596264,  0.00000000000000 ]
      - [ -0.44425634771000, -0.00000000000545 ]
      - [ -0.00000000000000,  0.00000000000000 ]
  - # 6
    frequency:   10.7728525200
    eigenvector:
    - # atom 1
      - [ -0.00000004059357,  0.00000000000000 ]
      - [ -0.00000004059357, -0.00000000000000 ]
      - [ -0.77817819635600,  0.00000000005278 ]
    - # atom 2
      - [ -0.00000000943613,  0.00000000000000 ]
      - [ -0.00000000943613,  0.00000000000000 ]
      - [ -0.62804354523880,  0.00000000004260 ]

- q-position: [    0.0550890,    0.0550890,    1.0000000 ]
  distance:    0.0194508
  band:
  - # 1
    frequency:    1.0244054100
    eigenvector:
    - # atom 1
      - [  0.44441204298804,  0.00000000000000 ]
      - [  0.44441204269706,  0.00000000000099 ]
      - [ -0.00000365455853, -0.00000000000000 ]
    - # atom 2
      - [ -0.54999812395847, -0.00000000000000 ]
      - [ -0.54999812359835, -0.00000000000122 ]
      - [  0.00000448596253,  0.00000000000000 ]
  - # 2
    frequency:    1.0244151260
    eigenvector:
    - # atom 1
      - [ -0.44441201627669,  0.00000000000000 ]
      - [  0.44441201656767,  0.00000000000099 ]
      - [ -0.00000000000000, -0.00000000000000 ]
    - # atom 2
      - [  0.54999814496188,  0.00000000000000 ]
      - [ -0.54999814532200, -0.00000000000122 ]
      - [  0.00000000000000,  0.00000000000000 ]
  - # 3
    frequency:    1.8281404774
    eigenvector:
    - # atom 1
      - [  0.00000255334682,  0.00000000000000 ]
      - [  0.00000255334682, -0.00000000000000 ]
      - [  0.62822593958936,  0.00000000001864 ]
    - # atom 2
      - [ -0.00000319694729,  0.00000000000000 ]
      - [ -0.00000319694730,  0.00000000000000 ]
      - [ -0.77803095619235, -0.00000000002309 ]
  - # 4
    frequency:    9.5286578737
    eigenvector:
    - # atom 1
      - [  0.54999812914667,  0.00000000000000 ]
      - [  0.54999811842874,  0.00000000000747 ]
      - [ -0.00000002032430, -0.00000000000000 ]
    - # atom 2
      - [  0.44441204718006,  0.00000000000000 ]
      - [  0.44441203851971,  0.00000000000604 ]
      - [ -0.00000005863530, -0.00000000000000 ]
  - # 5
    frequency:    9.5286580020
    eigenvector:
    - # atom 1
      - [  0.54999813978297, -0.00000000000000 ]
      - [ -0.54999815050091, -0.00000000000747 ]
      - [  0.00000000000000,  0.00000000000000 ]
    - # atom 2
      - [  0.44441201209200,  0.00000000000000 ]
      - [ -0.44441202075236, -0.00000000000604 ]
      - [  0.00000000000000,  0.00000000000000 ]
  - # 6
    frequency:   10.7438440200
    eigenvector:
    - # atom 1
      - [ -0.00000004013907,  0.00000000000000 ]
      - [ -0.00000004013907,  0.00000000000000 ]
      - [ -0.77803095620528,  0.00000000003604 ]
    - # atom 2
      - [ -0.00000000955906,  0.00000000000000 ]
      - [ -0.00000000955906,  0.00000000000000 ]
      - [ -0.62822593959999,  0.00000000002910 ]

- q-position: [    0.0600880,    0.0600880,    1.0000000 ]
  distance:    0.0212191
  band:
  - # 1
    frequency:    1.1160334493
    eigenvector:
    - # atom 1
      - [  0.44458176778423,  0.00000000000000 ]
      - [  0.44458176709547,  0.00000000000110 ]
      - [ -0.00000299747142, -0.00000000000000 ]
    - # atom 2
      - [ -0.54986093925395, -0.00000000000000 ]
      - [ -0.54986093840209, -0.00000000000136 ]
      - [  0.00000367100951,  0.00000000000000 ]
  - # 2
    frequency:    1.1160421777
    eigenvector:
    - # atom 1
      - [ -0.44458174124744,  0.00000000000000 ]
      - [  0.44458174193620,  0.00000000000110 ]