nqpoint: 404    
npath: 4      
segment_nqpoint:
- 101
- 101
- 101
- 101
labels:
- [ '$\Gamma$', 'X' ]
- [ 'X', 'K' ]
- [ 'K', '$\Gamma$' ]
- [ '$\Gamma$', 'L' ]
reciprocal_lattice:
- [  -0.17686126,   0.17686126,   0.17686126 ] # a*
- [   0.17686126,  -0.17686126,   0.17686126 ] # b*
- [   0.17686126,   0.17686126,  -0.17686126 ] # c*
natom: 2      
lattice:
- [     0.000000000000000,     2.827074733835000,     2.827074733835000 ] # a
- [     2.827074733835000,     0.000000000000000,     2.827074733835000 ] # b
- [     2.827074733835000,     2.827074733835000,     0.000000000000000 ] # c
points:
- symbol: Na # 1
  coordinates: [  0.000000000000000,  0.000000000000000,  0.000000000000000 ]
  mass: 22.989769
- symbol: Cl # 2
  coordinates: [  0.500000000000000,  0.500000000000000,  0.500000000000000 ]
  mass: 35.450000

phonon:
- q-position: [    0.0001000,    0.0001000,    1.0000000 ]
  distance:    0.0000000
  band:
  - # 1
    frequency:   -0.0066042957
    eigenvector:
    - # atom 1
      - [ -0.38302423392795, -0.00000000000000 ]
      - [ -0.38302423415640, -0.00000000000000 ]
      - [  0.31619222833070,  0.00000000000001 ]
    - # atom 2
      - [  0.47562750328684,  0.00000000000000 ]
      - [  0.47562750357052,  0.00000000000000 ]
      - [ -0.39263762298140, -0.00000000000001 ]
  - # 2
    frequency:   -0.0027781161
    eigenvector:
    - # atom 1
      - [  0.44350455002449,  0.00000000000000 ]
      - [ -0.44350455022292,  0.00000000000000 ]
      - [ -0.00000000056079,  0.00000000000001 ]
    - # atom 2
      - [ -0.55073016431268, -0.00000000000000 ]
      - [  0.55073016455908, -0.00000000000000 ]
      - [  0.00000000069637, -0.00000000000001 ]
  - # 3
    frequency:   -0.0015331439
    eigenvector:
    - # atom 1
      - [ -0.22358164569498,  0.00000000000000 ]
      - [ -0.22358164491002,  0.00000000000001 ]
      - [ -0.54167800552305,  0.00000000000000 ]
    - # atom 2
      - [  0.27763674517805,  0.00000000000000 ]
      - [  0.27763674420331, -0.00000000000001 ]
      - [  0.67263891509141, -0.00000000000000 ]
  - # 4
    frequency:    9.5027986400
    eigenvector:
    - # atom 1
      - [  0.55073013915615,  0.00000000000000 ]
      - [  0.55073013524367,  0.00000000000001 ]
      - [ -0.00000002480184,  0.00000000000000 ]
    - # atom 2
      - [  0.44350458551985,  0.00000000000000 ]
      - [  0.44350458236911,  0.00000000000001 ]
      - [ -0.00000007572033, -0.00000000000000 ]
  - # 5
    frequency:    9.5027987834
    eigenvector:
    - # atom 1
      - [  0.55073016247964,  0.00000000000000 ]
      - [ -0.55073016639212, -0.00000000000001 ]
      - [ -0.00000000000000,  0.00000000000000 ]
    - # atom 2
      - [  0.44350454854834,  0.00000000000000 ]
      - [ -0.44350455169907, -0.00000000000001 ]
      - [ -0.00000000000000, -0.00000000000000 ]
  - # 6
    frequency:   10.9142727622
    eigenvector:
    - # atom 1
      - [ -0.00000005139186, -0.00000000000000 ]
      - [ -0.00000005139186,  0.00000000000000 ]
      - [ -0.77885005814716,  0.00000000006251 ]
    - # atom 2
      - [ -0.00000001150313,  0.00000000000000 ]
      - [ -0.00000001150313,  0.00000000000000 ]
      - [ -0.62721016168758,  0.00000000005034 ]

- q-position: [    0.0050990,    0.0050990,    1.0000000 ]
  distance:    0.0017683
  band:
  - # 1
    frequency:    0.0952254485
    eigenvector:
    - # atom 1
      - [  0.44351227263107,  0.00000000000000 ]
      - [  0.44351227315765,  0.00000000000013 ]
      - [ -0.00055577130359, -0.00000000000000 ]
    - # atom 2
      - [ -0.55072358846382, -0.00000000000000 ]
      - [ -0.55072358911769, -0.00000000000016 ]
      - [  0.00069007338689,  0.00000000000000 ]
  - # 2
    frequency:    0.0953558665
    eigenvector:
    - # atom 1
      - [  0.44351241417484,  0.00000000000000 ]
      - [ -0.44351241364826, -0.00000000000013 ]
      - [ -0.00000000000030,  0.00000000000000 ]
    - # atom 2
      - [ -0.55072383193980, -0.00000000000000 ]
      - [  0.55072383128593,  0.00000000000016 ]
      - [  0.00000000000038, -0.00000000000000 ]
  - # 3
    frequency:    0.1696236642
    eigenvector:
    - # atom 1
      - [ -0.00039295056637,  0.00000000000000 ]
      - [ -0.00039295056641,  0.00000000000000 ]
      - [ -0.62721824554708, -0.00000000000018 ]
    - # atom 2
      - [  0.00048798705241, -0.00000000000000 ]
      - [  0.00048798705246, -0.00000000000000 ]
      - [  0.77884304411725,  0.00000000000022 ]
  - # 4
    frequency:    9.5030234197
    eigenvector:
    - # atom 1
      - [  0.55072380274043,  0.00000000000000 ]
      - [  0.55072380723823,  0.00000000000098 ]
      - [ -0.00000002379141,  0.00000000000000 ]
    - # atom 2
      - [  0.44351244515975,  0.00000000000000 ]
      - [  0.44351244878194,  0.00000000000079 ]
      - [ -0.00000007334424, -0.00000000000000 ]
  - # 5
    frequency:    9.5030235616
    eigenvector:
    - # atom 1
      - [ -0.55072383386176,  0.00000000000000 ]
      - [  0.55072382936397,  0.00000000000098 ]
      - [ -0.00000000000000,  0.00000000000000 ]
    - # atom 2
      - [ -0.44351241572264, -0.00000000000000 ]
      - [  0.44351241210045,  0.00000000000079 ]
      - [ -0.00000000000000, -0.00000000000000 ]
  - # 6
    frequency:   10.9127823558
    eigenvector:
    - # atom 1
      - [  0.00000004972980,  0.00000000000000 ]
      - [  0.00000004972980,  0.00000000000000 ]
      - [  0.77884334982787, -0.00000000005062 ]
    - # atom 2
      - [  0.00000001100068, -0.00000000000000 ]
      - [  0.00000001100068, -0.00000000000000 ]
      - [  0.62721849177850, -0.00000000004076 ]

- q-position: [    0.0100980,    0.0100980,    1.0000000 ]
  distance:    0.0035365
  band:
  - # 1
    frequency:    0.1888335620
    eigenvector:
    - # atom 1
      - [  0.44353541271911,  0.00000000000000 ]
      - [  0.44353541332984,  0.00000000000027 ]
      - [ -0.00013783631328, -0.00000000000000 ]
    - # atom 2
      - [ -0.55070528673618, -0.00000000000000 ]
      - [ -0.55070528749448, -0.00000000000033 ]
      - [  0.00017109650297,  0.00000000000000 ]
  - # 2
    frequency:    0.1888978602
    eigenvector:
    - # atom 1
      - [ -0.44353539171307, -0.00000000000000 ]
      - [  0.44353539110234,  0.00000000000027 ]
      - [  0.00000000000010, -0.00000000000000 ]
    - # atom 2
      - [  0.55070532681863,  0.00000000000000 ]
      - [ -0.55070532606033, -0.00000000000033 ]
      - [ -0.00000000000012,  0.00000000000000 ]
  - # 3
    frequency:    0.3359979656
    eigenvector:
    - # atom 1
      - [ -0.00009742694624,  0.00000000000000 ]
      - [ -0.00009742694623,  0.00000000000000 ]
      - [ -0.62724286386460, -0.00000000000026 ]
    - # atom 2
      - [  0.00012101413884, -0.00000000000000 ]
      - [  0.00012101413883, -0.00000000000000 ]
      - [  0.77882369086852,  0.00000000000032 ]
  - # 4
    frequency:    9.5036801256
    eigenvector:
    - # atom 1
      - [  0.55070530506496,  0.00000000000000 ]
      - [  0.55070529575782,  0.00000000000197 ]
      - [ -0.00000002292273,  0.00000000000000 ]
    - # atom 2
      - [  0.44353542747283,  0.00000000000000 ]
      - [  0.44353541997691,  0.00000000000159 ]
      - [ -0.00000007116042, -0.00000000000000 ]
  - # 5
    frequency:    9.5036802661
    eigenvector:
    - # atom 1
      - [ -0.55070532178591,  0.00000000000000 ]
      - [  0.55070533109305,  0.00000000000197 ]
      - [ -0.00000000000000,  0.00000000000000 ]
    - # atom 2
      - [ -0.44353538765974, -0.00000000000000 ]
      - [  0.44353539515567,  0.00000000000159 ]
      - [ -0.00000000000000, -0.00000000000000 ]
  - # 6
    frequency:   10.9084288640
    eigenvector:
    - # atom 1
      - [  0.00000004821763,  0.00000000000000 ]
      - [  0.00000004821763,  0.00000000000000 ]
      - [  0.77882370966226, -0.00000000003952 ]
    - # atom 2
      - [  0.00000001057438, -0.00000000000000 ]
      - [  0.00000001057438, -0.00000000000000 ]
      - [  0.62724287900933, -0.00000000003183 ]

- q-position: [    0.0150970,    0.0150970,    1.0000000 ]
  distance:    0.0053048
  band:
  - # 1
    frequency:    0.2823196297
    eigenvector:
    - # atom 1
      - [  0.44357348507344,  0.00000000000000 ]
      - [  0.44357348516998,  0.00000000000041 ]
      - [ -0.00005998074829, -0.00000000000000 ]
    - # atom 2
      - [ -0.55067463956768, -0.00000000000000 ]
      - [ -0.55067463968754, -0.00000000000051 ]
      - [  0.00007441957440,  0.00000000000000 ]
  - # 2
    frequency:    0.2823616788
    eigenvector:
    - # atom 1
      - [ -0.44357345560027, -0.00000000000000 ]
      - [  0.44357345550372,  0.00000000000041 ]
      - [  0.00000000000004, -0.00000000000000 ]
    - # atom 2
      - [  0.55067466765384,  0.00000000000000 ]
      - [ -0.55067466753398, -0.00000000000051 ]
      - [ -0.00000000000005,  0.00000000000000 ]
  - # 3
    frequency:    0.5023022858
    eigenvector:
    - # atom 1
      - [ -0.00004237574724,  0.00000000000000 ]
      - [ -0.00004237574719,  0.00000000000000 ]
      - [ -0.62728342395297, -0.00000000000178 ]
    - # atom 2
      - [  0.00005265242634, -0.00000000000000 ]
      - [  0.00005265242628, -0.00000000000000 ]
      - [  0.77879104829080,  0.00000000000221 ]
  - # 4
    frequency:    9.5047677823
    eigenvector:
    - # atom 1
      - [  0.55067464343248,  0.00000000000000 ]
      - [  0.55067464085707,  0.00000000000297 ]
      - [ -0.00000002218525,  0.00000000000000 ]
    - # atom 2
      - [  0.44357348818310,  0.00000000000000 ]
      - [  0.44357348610859,  0.00000000000239 ]
      - [ -0.00000006915624, -0.00000000000000 ]
  - # 5
    frequency:    9.5047679214
    eigenvector:
    - # atom 1
      - [ -0.55067466630621,  0.00000000000000 ]
      - [  0.55067466888161,  0.00000000000297 ]
      - [  0.00000000000000,  0.00000000000000 ]
    - # atom 2
      - [ -0.44357345451474, -0.00000000000000 ]
      - [  0.44357345658925,  0.00000000000239 ]
      - [  0.00000000000000, -0.00000000000000 ]
  - # 6
    frequency:   10.9012213107
    eigenvector:
    - # atom 1
      - [  0.00000004684519,  0.00000000000000 ]
      - [  0.00000004684519,  0.00000000000000 ]
      - [  0.77879105184648, -0.00000000004917 ]
    - # atom 2
      - [  0.00000001021852, -0.00000000000000 ]
      - [  0.00000001021852, -0.00000000000000 ]
      - [  0.62728342682064, -0.00000000003960 ]

- q-position: [    0.0200960,    0.0200960,    1.0000000 ]
  distance:    0.0070730
  band:
  - # 1
    frequency:    0.3757017293
    eigenvector:
    - # atom 1
      - [  0.44362659160375,  0.00000000000000 ]
      - [  0.44362659199657,  0.00000000000056 ]
      - [ -0.00003293581622, -0.00000000000000 ]
    - # atom 2
      - [ -0.55063186014166, -0.00000000000000 ]
      - [ -0.55063186062923, -0.00000000000069 ]
      - [  0.00004083761450,  0.00000000000000 ]
  - # 2
    frequency:    0.3757326266
    eigenvector:
    - # atom 1
      - [ -0.44362656171713,  0.00000000000000 ]
      - [  0.44362656132432,  0.00000000000056 ]
      - [  0.00000000000006, -0.00000000000000 ]
    - # atom 2
      - [  0.55063188627410,  0.00000000000000 ]
      - [ -0.55063188578653, -0.00000000000069 ]
      - [ -0.00000000000007,  0.00000000000000 ]
  - # 3
    frequency:    0.6685305443
    eigenvector:
    - # atom 1
      - [ -0.00002325303717,  0.00000000000000 ]
      - [ -0.00002325303711,  0.00000000000000 ]
      - [ -0.62734030695443, -0.00000000000210 ]
    - # atom 2
      - [  0.00002890563890, -0.00000000000000 ]
      - [  0.00002890563882, -0.00000000000000 ]
      - [  0.77874523209959,  0.00000000000261 ]
  - # 4
    frequency:    9.5062847753
    eigenvector:
    - # atom 1
      - [  0.55063185986347,  0.00000000000000 ]
      - [  0.55063186242482,  0.00000000000399 ]
      - [ -0.00000002157036,  0.00000000000000 ]
    - # atom 2
      - [  0.44362659137777,  0.00000000000000 ]
      - [  0.44362659344138,  0.00000000000322 ]
      - [ -0.00000006732094, -0.00000000000000 ]
  - # 5
    frequency:    9.5062849130
    eigenvector:
    - # atom 1
      - [ -0.55063188731099,  0.00000000000000 ]
      - [  0.55063188474963,  0.00000000000399 ]
      - [  0.00000000000000,  0.00000000000000 ]
    - # atom 2
      - [ -0.44362656255253, -0.00000000000000 ]
      - [  0.44362656048892,  0.00000000000322 ]
      - [  0.00000000000000, -0.00000000000000 ]
  - # 6
    frequency:   10.8911746474
    eigenvector:
    - # atom 1
      - [  0.00000004560383,  0.00000000000000 ]
      - [  0.00000004560383,  0.00000000000000 ]
      - [  0.77874523317035, -0.00000000003303 ]
    - # atom 2
      - [  0.00000000992852, -0.00000000000000 ]
      - [  0.00000000992852, -0.00000000000000 ]
      - [  0.62734030781901, -0.00000000002660 ]

- q-position: [    0.0250950,    0.0250950,    1.0000000 ]
  distance:    0.0088413
  band:
  - # 1
    frequency:    0.4689603876
    eigenvector:
    - # atom 1
      - [  0.44369467605569,  0.00000000000000 ]
      - [  0.44369467744357,  0.00000000000085 ]
      - [ -0.00002055707572, -0.00000000000000 ]
    - # atom 2
      - [ -0.55057699946532, -0.00000000000000 ]
      - [ -0.55057700118753, -0.00000000000106 ]
      - [  0.00002546758512,  0.00000000000000 ]
  - # 2
    frequency:    0.4689845946
    eigenvector:
    - # atom 1
      - [ -0.44369464747885,  0.00000000000000 ]
      - [  0.44369464609097,  0.00000000000085 ]
      - [  0.00000000000000, -0.00000000000000 ]
    - # atom 2
      - [  0.55057702582166,  0.00000000000000 ]
      - [ -0.55057702409945, -0.00000000000106 ]
      - [ -0.00000000000001,  0.00000000000000 ]
  - # 3
    frequency:    0.8346628171
    eigenvector:
    - # atom 1
      - [ -0.00001450083817, -0.00000000000000 ]
      - [ -0.00001450083821,  0.00000000000000 ]
      - [ -0.62741376510742, -0.00000000000272 ]
    - # atom 2
      - [  0.00001803667434, -0.00000000000000 ]
      - [  0.00001803667439, -0.00000000000000 ]
      - [  0.77868605116731,  0.00000000000338 ]
  - # 4
    frequency:    9.5082288551
    eigenvector:
    - # atom 1
      - [  0.55057700005059,  0.00000000000000 ]
      - [  0.55057700119313,  0.00000000000349 ]
      - [ -0.00000002107119,  0.00000000000000 ]
    - # atom 2
      - [  0.44369467652622,  0.00000000000000 ]
      - [  0.44369467744696,  0.00000000000281 ]
      - [ -0.00000006564543, -0.00000000000000 ]
  - # 5
    frequency:    9.5082289914
    eigenvector:
    - # atom 1
      - [ -0.55057702553182,  0.00000000000000 ]
      - [  0.55057702438929,  0.00000000000349 ]
      - [ -0.00000000000000,  0.00000000000000 ]
    - # atom 2
      - [ -0.44369464724528, -0.00000000000000 ]
      - [  0.44369464632454,  0.00000000000281 ]
      - [  0.00000000000000, -0.00000000000000 ]
  - # 6
    frequency:   10.8783097378
    eigenvector:
    - # atom 1
      - [  0.00000004448634,  0.00000000000000 ]
      - [  0.00000004448634,  0.00000000000000 ]
      - [  0.77868605158378, -0.00000000003797 ]
    - # atom 2
      - [  0.00000000970079, -0.00000000000000 ]
      - [  0.00000000970079, -0.00000000000000 ]
      - [  0.62741376544420, -0.00000000003060 ]

- q-position: [    0.0300940,    0.0300940,    1.0000000 ]
  distance:    0.0106096
  band:
  - # 1
    frequency:    0.5620698612
    eigenvector:
    - # atom 1
      - [  0.44377766097467,  0.00000000000000 ]
      - [  0.44377766025544,  0.00000000000073 ]
      - [ -0.00001391815686, -0.00000000000000 ]
    - # atom 2
      - [ -0.55051011633302, -0.00000000000000 ]
      - [ -0.55051011544080, -0.00000000000090 ]
      - [  0.00001722500259,  0.00000000000000 ]
  - # 2
    frequency:    0.5620896148
    eigenvector:
    - # atom 1
      - [ -0.44377763083193,  0.00000000000000 ]
      - [  0.44377763155117,  0.00000000000073 ]
      - [ -0.00000000000002, -0.00000000000000 ]
    - # atom 2
      - [  0.55051013938241,  0.00000000000000 ]
      - [ -0.55051014027463, -0.00000000000090 ]
      - [  0.00000000000002,  0.00000000000000 ]
  - # 3
    frequency:    1.0006766968
    eigenvector:
    - # atom 1
      - [ -0.00000980725619, -0.00000000000000 ]
      - [ -0.00000980725620,  0.00000000000000 ]
      - [ -0.62750411618523, -0.00000000000156 ]
    - # atom 2
      - [  0.00001220761713, -0.00000000000000 ]
      - [  0.00001220761714, -0.00000000000000 ]
      - [  0.77861324396659,  0.00000000000194 ]
  - # 4
    frequency:    9.5105971425
    eigenvector:
    - # atom 1
      - [  0.55051011079833,  0.00000000000000 ]
      - [  0.55051012124619,  0.00000000000764 ]
      - [ -0.00000002068251,  0.00000000000000 ]
    - # atom 2
      - [  0.44377765651230,  0.00000000000000 ]
      - [  0.44377766493454,  0.00000000000616 ]
      - [ -0.00000006412223, -0.00000000000000 ]
  - # 5
    frequency:    9.5105972774
    eigenvector:
    - # atom 1
      - [ -0.55051014505245,  0.00000000000000 ]
      - [  0.55051013460459,  0.00000000000764 ]
      - [  0.00000000000000,  0.00000000000000 ]
    - # atom 2
      - [ -0.44377763540267, -0.00000000000000 ]
      - [  0.44377762698043,  0.00000000000616 ]
      - [  0.00000000000000, -0.00000000000000 ]
  - # 6
    frequency:   10.8626533381
    eigenvector:
    - # atom 1
      - [  0.00000004348679,  0.00000000000000 ]
      - [  0.00000004348679,  0.00000000000000 ]
      - [  0.77861324415712, -0.00000000003993 ]
    - # atom 2
      - [  0.00000000953270, -0.00000000000000 ]
      - [  0.00000000953270, -0.00000000000000 ]
      - [  0.62750411633958, -0.00000000003218 ]

- q-position: [    0.0350930,    0.0350930,    1.0000000 ]
  distance:    0.0123778
  band:
  - # 1
    frequency:    0.6550026837
    eigenvector:
    - # atom 1
      - [  0.44387544612589,  0.00000000000000 ]
      - [  0.44387544565728,  0.00000000000104 ]
      - [ -0.00000996931825, -0.00000000000000 ]
    - # atom 2
      - [ -0.55043127520953, -0.00000000000000 ]
      - [ -0.55043127462843, -0.00000000000129 ]
      - [  0.00001232279751,  0.00000000000000 ]
  - # 2
    frequency:    0.6550192644
    eigenvector:
    - # atom 1
      - [ -0.44387541683376,  0.00000000000000 ]
      - [  0.44387541730236,  0.00000000000104 ]
      - [ -0.00000000000001, -0.00000000000000 ]
    - # atom 2
      - [  0.55043129798622,  0.00000000000000 ]
      - [ -0.55043129856732, -0.00000000000129 ]
      - [  0.00000000000001,  0.00000000000000 ]
  - # 3
    frequency:    1.1665489129
    eigenvector:
    - # atom 1
      - [ -0.00000701580090, -0.00000000000000 ]
      - [ -0.00000701580090,  0.00000000000000 ]
      - [ -0.62761175338953, -0.00000000000040 ]
    - # atom 2
      - [  0.00000874060256, -0.00000000000000 ]
      - [  0.00000874060256, -0.00000000000000 ]
      - [  0.77852648429972,  0.00000000000050 ]
  - # 4
    frequency:    9.5133861359
    eigenvector:
    - # atom 1
      - [  0.55043127073802,  0.00000000000000 ]
      - [  0.55043127923872,  0.00000000000714 ]
      - [ -0.00000002040066,  0.00000000000000 ]
    - # atom 2
      - [  0.44387544251949,  0.00000000000000 ]
      - [  0.44387544937457,  0.00000000000576 ]
      - [ -0.00000006274539, -0.00000000000000 ]
  - # 5
    frequency:    9.5133862695
    eigenvector:
    - # atom 1
      - [ -0.55043130252712,  0.00000000000000 ]
      - [  0.55043129402642,  0.00000000000714 ]
      - [  0.00000000000000,  0.00000000000000 ]
    - # atom 2
      - [ -0.44387542049560, -0.00000000000000 ]
      - [  0.44387541364052,  0.00000000000576 ]
      - [  0.00000000000000, -0.00000000000000 ]
  - # 6
    frequency:   10.8442380699
    eigenvector:
    - # atom 1
      - [  0.00000004260053,  0.00000000000000 ]
      - [  0.00000004260053,  0.00000000000000 ]
      - [  0.77852648439724, -0.00000000003100 ]
    - # atom 2
      - [  0.00000000942254, -0.00000000000000 ]
      - [  0.00000000942254, -0.00000000000000 ]
      - [  0.62761175346871, -0.00000000002499 ]

- q-position: [    0.0400920,    0.0400920,    1.0000000 ]
  distance:    0.0141461
  band:
  - # 1
    frequency:    0.7477308258
    eigenvector:
    - # atom 1
      - [  0.44398791744258,  0.00000000000000 ]
      - [  0.44398791768039,  0.00000000000121 ]
      - [ -0.00000744244236, -0.00000000000000 ]
    - # atom 2
      - [ -0.55034055713467, -0.00000000000000 ]
      - [ -0.55034055742944, -0.00000000000150 ]
      - [  0.00000918626532,  0.00000000000000 ]
  - # 2
    frequency:    0.7477450346
    eigenvector:
    - # atom 1
      - [  0.44398788946868, -0.00000000000000 ]
      - [ -0.44398788923087, -0.00000000000121 ]
      - [  0.00000000000001,  0.00000000000000 ]
    - # atom 2
      - [ -0.55034058025277, -0.00000000000000 ]
      - [  0.55034057995800,  0.00000000000150 ]
      - [ -0.00000000000001, -0.00000000000000 ]
  - # 3
    frequency:    1.3322557123
    eigenvector:
    - # atom 1
      - [  0.00000522978026,  0.00000000000000 ]
      - [  0.00000522978027, -0.00000000000000 ]
      - [  0.62773714999099,  0.00000000000086 ]
    - # atom 2
      - [ -0.00000652214435,  0.00000000000000 ]
      - [ -0.00000652214436,  0.00000000000000 ]
      - [ -0.77842537881380, -0.00000000000107 ]
  - # 4
    frequency:    9.5165917200
    eigenvector:
    - # atom 1
      - [  0.55034056153225,  0.00000000000000 ]
      - [  0.55034055310915,  0.00000000000822 ]
      - [ -0.00000002022357,  0.00000000000000 ]
    - # atom 2
      - [  0.44398792098996,  0.00000000000000 ]
      - [  0.44398791419462,  0.00000000000664 ]
      - [ -0.00000006151044, -0.00000000000000 ]
  - # 5
    frequency:    9.5165918522
    eigenvector:
    - # atom 1
      - [  0.55034057589384,  0.00000000000000 ]
      - [ -0.55034058431694, -0.00000000000822 ]
      - [ -0.00000000000000,  0.00000000000000 ]
    - # atom 2
      - [  0.44398788595210,  0.00000000000000 ]
      - [ -0.44398789274745, -0.00000000000664 ]
      - [ -0.00000000000000,  0.00000000000000 ]
  - # 6
    frequency:   10.8231023876
    eigenvector:
    - # atom 1
      - [ -0.00000004182414, -0.00000000000000 ]
      - [ -0.00000004182414, -0.00000000000000 ]
      - [ -0.77842537886801,  0.00000000003710 ]
    - # atom 2
      - [ -0.00000000936950,  0.00000000000000 ]
      - [ -0.00000000936949,  0.00000000000000 ]
      - [ -0.62773715003511,  0.00000000002992 ]

- q-position: [    0.0450910,    0.0450910,    1.0000000 ]
  distance:    0.0159143
  band:
  - # 1
    frequency:    0.8402260970
    eigenvector:
    - # atom 1
      - [  0.44411494375088,  0.00000000000000 ]
      - [  0.44411494291791,  0.00000000000138 ]
      - [ -0.00000573502781, -0.00000000000000 ]
    - # atom 2
      - [ -0.55023805542104, -0.00000000000000 ]
      - [ -0.55023805438903, -0.00000000000171 ]
      - [  0.00000706724264,  0.00000000000000 ]
  - # 2
    frequency:    0.8402384682
    eigenvector:
    - # atom 1
      - [  0.44411491531403, -0.00000000000000 ]
      - [ -0.44411491614700, -0.00000000000138 ]
      - [ -0.00000000000000,  0.00000000000000 ]
    - # atom 2
      - [ -0.55023807670664, -0.00000000000000 ]
      - [  0.55023807773865,  0.00000000000171 ]
      - [  0.00000000000000, -0.00000000000000 ]
  - # 3
    frequency:    1.4977729622
    eigenvector:
    - # atom 1
      - [  0.00000402316381,  0.00000000000000 ]
      - [  0.00000402316380, -0.00000000000000 ]
      - [  0.62788086425233,  0.00000000000073 ]
    - # atom 2
      - [ -0.00000502320919,  0.00000000000000 ]
      - [ -0.00000502320918,  0.00000000000000 ]
      - [ -0.77830946301771, -0.00000000000090 ]
  - # 4
    frequency:    9.5202091753
    eigenvector:
    - # atom 1
      - [  0.55023806047444,  0.00000000000000 ]
      - [  0.55023804938148,  0.00000000000932 ]
      - [ -0.00000002015071,  0.00000000000000 ]
    - # atom 2
      - [  0.44411494782936,  0.00000000000000 ]
      - [  0.44411493887587,  0.00000000000752 ]
      - [ -0.00000006041442, -0.00000000000000 ]
  - # 5
    frequency:    9.5202093062
    eigenvector:
    - # atom 1
      - [  0.55023807167617,  0.00000000000000 ]
      - [ -0.55023808276913, -0.00000000000932 ]
      - [  0.00000000000000, -0.00000000000000 ]
    - # atom 2
      - [  0.44411491125377,  0.00000000000000 ]
      - [ -0.44411492020726, -0.00000000000752 ]
      - [  0.00000000000000,  0.00000000000000 ]
  - # 6
    frequency:   10.7992905391
    eigenvector:
    - # atom 1
      - [ -0.00000004115544, -0.00000000000000 ]
      - [ -0.00000004115544, -0.00000000000000 ]
      - [ -0.77830946304980,  0.00000000005282 ]
    - # atom 2
      - [ -0.00000000937366,  0.00000000000000 ]
      - [ -0.00000000937366,  0.00000000000000 ]
      - [ -0.62788086427852,  0.00000000004261 ]

- q-position: [    0.0500900,    0.0500900,    1.0000000 ]
  distance:    0.0176826
  band:
  - # 1
    frequency:    0.9324603180
    eigenvector:
    - # atom 1
      - [  0.44425637327350,  0.00000000000000 ]
      - [  0.44425637441107,  0.00000000000157 ]
      - [ -0.00000453166379, -0.00000000000000 ]
    - # atom 2
      - [ -0.55012387105066, -0.00000000000000 ]
      - [ -0.55012387245932, -0.00000000000194 ]
      - [  0.00000557406593,  0.00000000000000 ]
  - # 2
    frequency:    0.9324712256
    eigenvector:
    - # atom 1
      - [  0.44425634740511, -0.00000000000000 ]
      - [ -0.44425634626753, -0.00000000000157 ]
      - [ -0.00000000000001,  0.00000000000000 ]
    - # atom 2
      - [ -0.55012389429163, -0.00000000000000 ]
      - [  0.55012389288296,  0.00000000000194 ]
      - [  0.00000000000001, -0.00000000000000 ]
  - # 3
    frequency:    1.6630761707
    eigenvector:
    - # atom 1
      - [  0.00000317292457,  0.00000000000000 ]
      - [  0.00000317292457, -0.00000000000000 ]
      - [  0.62804354522246,  0.00000000000067 ]
    - # atom 2
      - [ -0.00000396684734,  0.00000000000000 ]
      - [ -0.00000396684734,  0.00000000000000 ]
      - [ -0.77817819633603, -0.00000000000083 ]
  - # 4
    frequency:    9.5242331903
    eigenvector:
    - # atom 1
      - [  0.55012386746503,  0.00000000000000 ]
      - [  0.55012387607355,  0.00000000001042 ]
      - [ -0.00000002018328,  0.00000000000000 ]
    - # atom 2
      - [  0.44425637037768,  0.00000000000000 ]
      - [  0.44425637732955,  0.00000000000842 ]
      - [ -0.00000005945594, -0.00000000000000 ]
  - # 5
    frequency:    9.5242333199
    eigenvector:
    - # atom 1
      - [  0.55012389789155,  0.00000000000000 ]
      - [ -0.55012388928304, -0.00000000001042 ]
      - [ -0.00000000000000, -0.00000000000000 ]
    - # atom 2
      - [  0.44425635031225,  0.00000000000000 ]
      - [ -0.44425634336039, -0.00000000000842 ]
      - [ -0.00000000000000,  0.00000000000000 ]
  - # 6
    frequency:   10.7728525200
    eigenvector:
    - # atom 1
      - [ -0.00000004059357, -0.00000000000000 ]
      - [ -0.00000004059357, -0.00000000000000 ]
      - [ -0.77817819635600,  0.00000000004355 ]
    - # atom 2
      - [ -0.00000000943613,  0.00000000000000 ]
      - [ -0.00000000943613,  0.00000000000000 ]
      - [ -0.62804354523880,  0.00000000003515 ]

- q-position: [    0.0550890,    0.0550890,    1.0000000 ]
  distance:    0.0194508
  band:
  - # 1
    frequency:    1.0244054100
    eigenvector:
    - # atom 1
      - [  0.44441204224020,  0.00000000000000 ]
      - [  0.44441204344490,  0.00000000000175 ]
      - [ -0.00000365455853, -0.00000000000000 ]
    - # atom 2
      - [ -0.54999812303295, -0.00000000000000 ]
      - [ -0.54999812452387, -0.00000000000217 ]
      - [  0.00000448596253,  0.00000000000000 ]
  - # 2
    frequency:    1.0244151260
    eigenvector:
    - # atom 1
      - [ -0.44441201702453,  0.00000000000000 ]
      - [  0.44441201581983,  0.00000000000175 ]
      - [  0.00000000000000, -0.00000000000000 ]
    - # atom 2
      - [  0.54999814588740,  0.00000000000000 ]
      - [ -0.54999814439648, -0.00000000000217 ]
      - [ -0.00000000000001,  0.00000000000000 ]
  - # 3
    frequency:    1.8281404774
    eigenvector:
    - # atom 1
      - [  0.00000255334682,  0.00000000000000 ]
      - [  0.00000255334682, -0.00000000000000 ]
      - [  0.62822593958936, -0.00000000000053 ]
    - # atom 2
      - [ -0.00000319694729,  0.00000000000000 ]
      - [ -0.00000319694729,  0.00000000000000 ]
      - [ -0.77803095619235,  0.00000000000066 ]
  - # 4
    frequency:    9.5286578737
    eigenvector:
    - # atom 1
      - [  0.54999811942405,  0.00000000000000 ]
      - [  0.54999812815136,  0.00000000001154 ]
      - [ -0.00000002032430,  0.00000000000000 ]
    - # atom 2
      - [  0.44441203932394,  0.00000000000000 ]
      - [  0.44441204637582,  0.00000000000932 ]
      - [ -0.00000005863530, -0.00000000000000 ]
  - # 5
    frequency:    9.5286580020
    eigenvector:
    - # atom 1
      - [  0.54999814950559,  0.00000000000000 ]
      - [ -0.54999814077828, -0.00000000001154 ]
      - [ -0.00000000000000, -0.00000000000000 ]
    - # atom 2
      - [  0.44441201994812,  0.00000000000000 ]
      - [ -0.44441201289624, -0.00000000000932 ]
      - [ -0.00000000000000,  0.00000000000000 ]
  - # 6
    frequency:   10.7438440200
    eigenvector:
    - # atom 1
      - [ -0.00000004013907, -0.00000000000000 ]
      - [ -0.00000004013907, -0.00000000000000 ]
      - [ -0.77803095620528,  0.00000000006165 ]
    - # atom 2
      - [ -0.00000000955906,  0.00000000000000 ]
      - [ -0.00000000955906,  0.00000000000000 ]
      - [ -0.62822593959999,  0.00000000004978 ]

- q-position: [    0.0600880,    0.0600880,    1.0000000 ]
  distance:    0.0212191
  band:
  - # 1
    frequency:    1.1160334493
    eigenvector:
    - # atom 1
      - [  0.44458176712208,  0.00000000000000 ]
      - [  0.44458176775761,  0.00000000000195 ]
      - [ -0.00000299747142, -0.00000000000000 ]
    - # atom 2
      - [ -0.54986093843501, -0.00000000000000 ]
      - [ -0.54986093922103, -0.00000000000241 ]
      - [  0.00000367100951,  0.00000000000000 ]
  - # 2
    frequency:    1.1160421777
    eigenvector:
    - # atom 1
      - [ -0.44458174190958,  0.00000000000000 ]
      - [  0.44458174127406,  0.00000000000195 ]