default value
2.435076 0 0 0 2.435076 0 0 0 2.435076
1 0 0 0 1 0 0 0 1
-1 0 0 0 -1 0 0 0 -1
