  64   64
   1   1
     6.635488099375006     0.000000000000000    -0.000000000000000
     0.000000000000000     6.635488099375005    -0.000000000000000
    -0.000000000000000    -0.000000000000000     6.635488099375000
   1   2
     0.232564409375000    -0.000000000000000     0.000000000000000
     0.000000000000000    -0.017966810625000    -0.000000000000000
     0.000000000000000    -0.000000000000000    -0.017966810625000
   1   3
    -0.017966810625000    -0.000000000000000    -0.000000000000000
     0.000000000000000     0.232564409375000     0.000000000000000
    -0.000000000000000    -0.000000000000000    -0.017966810625000
   1   4
     0.003461122708333     0.000000000000000    -0.000000000000000
    -0.000000000000000     0.003461122708333    -0.000000000000000
     0.000000000000000    -0.000000000000000    -0.000764187291667
   1   5
    -0.017966810625000    -0.000000000000000     0.000000000000000
     0.000000000000000    -0.017966810625000     0.000000000000000
     0.000000000000000     0.000000000000000     0.232564409375000
   1   6
     0.003461122708333     0.000000000000000    -0.000000000000000
     0.000000000000000    -0.000764187291667    -0.000000000000000
    -0.000000000000000    -0.000000000000000     0.003461122708333
   1   7
    -0.000764187291667    -0.000000000000000     0.000000000000000
    -0.000000000000000     0.003461122708333    -0.000000000000000
    -0.000000000000000    -0.000000000000000     0.003461122708333
   1   8
     0.000764206041667    -0.000000000000000    -0.000000000000000
     0.000000000000000     0.000764206041667    -0.000000000000000
    -0.000000000000000    -0.000000000000000     0.000764206041667
   1   9
    -0.000684807291667    -0.000000000000000    -0.000000000000000
     0.000000000000000    -0.211393223958333    -0.214999628333333
     0.000000000000000    -0.214999628333333    -0.211393223958333
   1  10
     0.002217546041667    -0.000000000000000     0.000000000000000
     0.000000000000000    -0.000152268958333     0.001120615000000
    -0.000000000000000     0.001120615000000    -0.000152268958333
   1  11
    -0.000684807291667    -0.000000000000000     0.000000000000000
     0.000000000000000    -0.211393223958333     0.214999628333333
     0.000000000000000     0.214999628333333    -0.211393223958333
   1  12
     0.002217546041667    -0.000000000000000    -0.000000000000000
     0.000000000000000    -0.000152268958333    -0.001120615000000
    -0.000000000000000    -0.001120615000000    -0.000152268958333
   1  13
    -0.000684807291667    -0.000000000000000     0.000000000000000
     0.000000000000000    -0.211393223958333     0.214999628333333
     0.000000000000000     0.214999628333333    -0.211393223958333
   1  14
     0.002217546041667    -0.000000000000000    -0.000000000000000
     0.000000000000000    -0.000152268958333    -0.001120615000000
    -0.000000000000000    -0.001120615000000    -0.000152268958333
   1  15
    -0.000684807291667    -0.000000000000000    -0.000000000000000
     0.000000000000000    -0.211393223958333    -0.214999628333333
     0.000000000000000    -0.214999628333333    -0.211393223958333
   1  16
     0.002217546041667    -0.000000000000000     0.000000000000000
     0.000000000000000    -0.000152268958333     0.001120615000000
    -0.000000000000000     0.001120615000000    -0.000152268958333
   1  17
    -0.211393223958333    -0.000000000000000    -0.214999628333333
     0.000000000000000    -0.000684807291667     0.000000000000000
    -0.214999628333333    -0.000000000000000    -0.211393223958333
   1  18
    -0.211393223958333    -0.000000000000000     0.214999628333333
     0.000000000000000    -0.000684807291667    -0.000000000000000
     0.214999628333333    -0.000000000000000    -0.211393223958333
   1  19
    -0.000152268958333    -0.000000000000000     0.001120615000000
     0.000000000000000     0.002217546041667    -0.000000000000000
     0.001120615000000    -0.000000000000000    -0.000152268958333
   1  20
    -0.000152268958333    -0.000000000000000    -0.001120615000000
     0.000000000000000     0.002217546041667     0.000000000000000
    -0.001120615000000    -0.000000000000000    -0.000152268958333
   1  21
    -0.211393223958333    -0.000000000000000     0.214999628333333
     0.000000000000000    -0.000684807291667    -0.000000000000000
     0.214999628333333    -0.000000000000000    -0.211393223958333
   1  22
    -0.211393223958333    -0.000000000000000    -0.214999628333333
     0.000000000000000    -0.000684807291667     0.000000000000000
    -0.214999628333333    -0.000000000000000    -0.211393223958333
   1  23
    -0.000152268958333    -0.000000000000000    -0.001120615000000
     0.000000000000000     0.002217546041667     0.000000000000000
    -0.001120615000000     0.000000000000000    -0.000152268958333
   1  24
    -0.000152268958333    -0.000000000000000     0.001120615000000
     0.000000000000000     0.002217546041667    -0.000000000000000
     0.001120615000000    -0.000000000000000    -0.000152268958333
   1  25
    -0.211393223958334    -0.214999628333333    -0.000000000000000
    -0.214999628333333    -0.211393223958333    -0.000000000000000
    -0.000000000000000     0.000000000000000    -0.000684807291667
   1  26
    -0.211393223958333     0.214999628333333    -0.000000000000000
     0.214999628333333    -0.211393223958333    -0.000000000000000
    -0.000000000000000    -0.000000000000000    -0.000684807291667
   1  27
    -0.211393223958333     0.214999628333333    -0.000000000000000
     0.214999628333333    -0.211393223958333    -0.000000000000000
    -0.000000000000000    -0.000000000000000    -0.000684807291667
   1  28
    -0.211393223958333    -0.214999628333333    -0.000000000000000
    -0.214999628333333    -0.211393223958333    -0.000000000000000
    -0.000000000000000    -0.000000000000000    -0.000684807291667
   1  29
    -0.000152268958333     0.001120615000000     0.000000000000000
     0.001120615000000    -0.000152268958333    -0.000000000000000
    -0.000000000000000    -0.000000000000000     0.002217546041667
   1  30
    -0.000152268958333    -0.001120615000000     0.000000000000000
    -0.001120615000000    -0.000152268958333    -0.000000000000000
    -0.000000000000000    -0.000000000000000     0.002217546041667
   1  31
    -0.000152268958333    -0.001120615000000     0.000000000000000
    -0.001120615000000    -0.000152268958333    -0.000000000000000
    -0.000000000000000     0.000000000000000     0.002217546041667
   1  32
    -0.000152268958333     0.001120615000000     0.000000000000000
     0.001120615000000    -0.000152268958333    -0.000000000000000
    -0.000000000000000    -0.000000000000000     0.002217546041667
   1  33
     0.004117370781250     0.005284779166667     0.005284779166667
     0.005284779166667     0.004117370781250     0.005284779166667
     0.005284779166667     0.005284779166667     0.004117370781250
   1  34
     0.004117370781250    -0.005284779166667    -0.005284779166667
    -0.005284779166667     0.004117370781250     0.005284779166667
    -0.005284779166667     0.005284779166667     0.004117370781250
   1  35
     0.004117370781250    -0.005284779166667     0.005284779166667
    -0.005284779166667     0.004117370781250    -0.005284779166667
     0.005284779166667    -0.005284779166667     0.004117370781250
   1  36
     0.004117370781250     0.005284779166667    -0.005284779166667
     0.005284779166667     0.004117370781250    -0.005284779166667
    -0.005284779166667    -0.005284779166667     0.004117370781250
   1  37
     0.004117370781250     0.005284779166667    -0.005284779166667
     0.005284779166667     0.004117370781250    -0.005284779166667
    -0.005284779166667    -0.005284779166667     0.004117370781250
   1  38
     0.004117370781250    -0.005284779166667     0.005284779166667
    -0.005284779166667     0.004117370781250    -0.005284779166667
     0.005284779166667    -0.005284779166667     0.004117370781250
   1  39
     0.004117370781250    -0.005284779166667    -0.005284779166667
    -0.005284779166667     0.004117370781250     0.005284779166667
    -0.005284779166667     0.005284779166667     0.004117370781250
   1  40
     0.004117370781250     0.005284779166667     0.005284779166667
     0.005284779166667     0.004117370781250     0.005284779166667
     0.005284779166667     0.005284779166667     0.004117370781250
   1  41
    -2.083804189218750    -0.000000000000000    -0.000000000000000
     0.000000000000000    -0.248740185052083     0.000000000000000
    -0.000000000000000     0.000000000000000    -0.248740185052083
   1  42
    -2.083804189218750    -0.000000000000000    -0.000000000000000
     0.000000000000000    -0.248740185052083    -0.000000000000000
     0.000000000000000    -0.000000000000000    -0.248740185052083
   1  43
    -0.000198720885417    -0.000000000000000    -0.000000000000000
     0.000000000000000    -0.005974470052083    -0.000000000000000
    -0.000000000000000    -0.000000000000000     0.004242439947917
   1  44
    -0.000198720885417    -0.000000000000000    -0.000000000000000
     0.000000000000000    -0.005974470052083    -0.000000000000000
    -0.000000000000000    -0.000000000000000     0.004242439947917
   1  45
    -0.000198720885417    -0.000000000000000     0.000000000000000
     0.000000000000000     0.004242439947917    -0.000000000000000
    -0.000000000000000    -0.000000000000000    -0.005974470052083
   1  46
    -0.000198720885417    -0.000000000000000     0.000000000000000
     0.000000000000000     0.004242439947917    -0.000000000000000
    -0.000000000000000    -0.000000000000000    -0.005974470052083
   1  47
    -0.000000000052083    -0.000000000000000     0.000000000000000
     0.000000000000000    -0.003863751718750     0.000000000000000
    -0.000000000000000     0.000000000000000    -0.003863751718750
   1  48
    -0.000000000052083    -0.000000000000000     0.000000000000000
     0.000000000000000    -0.003863751718750    -0.000000000000000
    -0.000000000000000    -0.000000000000000    -0.003863751718750
   1  49
    -0.248740185052084    -0.000000000000000     0.000000000000000
     0.000000000000000    -2.083804189218749     0.000000000000000
     0.000000000000000    -0.000000000000000    -0.248740185052083
   1  50
    -0.005974470052083    -0.000000000000000    -0.000000000000000
     0.000000000000000    -0.000198720885417    -0.000000000000000
    -0.000000000000000    -0.000000000000000     0.004242439947917
   1  51
    -0.248740185052084    -0.000000000000000    -0.000000000000000
     0.000000000000000    -2.083804189218749     0.000000000000000
    -0.000000000000000     0.000000000000000    -0.248740185052083
   1  52
    -0.005974470052083    -0.000000000000000    -0.000000000000000
     0.000000000000000    -0.000198720885417    -0.000000000000000
    -0.000000000000000    -0.000000000000000     0.004242439947917
   1  53
     0.004242439947917    -0.000000000000000    -0.000000000000000
     0.000000000000000    -0.000198720885417    -0.000000000000000
    -0.000000000000000     0.000000000000000    -0.005974470052083
   1  54
    -0.003863751718750    -0.000000000000000     0.000000000000000
     0.000000000000000    -0.000000000052083    -0.000000000000000
     0.000000000000000    -0.000000000000000    -0.003863751718750
   1  55
     0.004242439947917    -0.000000000000000    -0.000000000000000
     0.000000000000000    -0.000198720885417    -0.000000000000000
    -0.000000000000000    -0.000000000000000    -0.005974470052083
   1  56
    -0.003863751718750    -0.000000000000000    -0.000000000000000
     0.000000000000000    -0.000000000052083    -0.000000000000000
    -0.000000000000000    -0.000000000000000    -0.003863751718750
   1  57
    -0.248740185052083    -0.000000000000000    -0.000000000000000
     0.000000000000000    -0.248740185052083    -0.000000000000000
    -0.000000000000000    -0.000000000000000    -2.083804189218749
   1  58
    -0.005974470052083    -0.000000000000000    -0.000000000000000
    -0.000000000000000     0.004242439947917    -0.000000000000000
     0.000000000000000    -0.000000000000000    -0.000198720885417
   1  59
     0.004242439947917    -0.000000000000000    -0.000000000000000
     0.000000000000000    -0.005974470052083     0.000000000000000
    -0.000000000000000     0.000000000000000    -0.000198720885417
   1  60
    -0.003863751718750     0.000000000000000    -0.000000000000000
     0.000000000000000    -0.003863751718750    -0.000000000000000
     0.000000000000000    -0.000000000000000    -0.000000000052083
   1  61
    -0.248740185052083    -0.000000000000000     0.000000000000000
     0.000000000000000    -0.248740185052083     0.000000000000000
    -0.000000000000000    -0.000000000000000    -2.083804189218749
   1  62
    -0.005974470052083    -0.000000000000000    -0.000000000000000
     0.000000000000000     0.004242439947917    -0.000000000000000
     0.000000000000000    -0.000000000000000    -0.000198720885417
   1  63
     0.004242439947917    -0.000000000000000    -0.000000000000000
     0.000000000000000    -0.005974470052083    -0.000000000000000
    -0.000000000000000     0.000000000000000    -0.000198720885417
   1  64
    -0.003863751718750    -0.000000000000000    -0.000000000000000
     0.000000000000000    -0.003863751718750    -0.000000000000000
     0.000000000000000    -0.000000000000000    -0.000000000052083
   2   1
     0.232564409375000     0.000000000000000     0.000000000000000
    -0.000000000000000    -0.017966810625000    -0.000000000000000
     0.000000000000000    -0.000000000000000    -0.017966810625000
   2   2
     6.635488099375004     0.000000000000000     0.000000000000000
     0.000000000000000     6.635488099375001     0.000000000000000
     0.000000000000000     0.000000000000000     6.635488099374999
   2   3
     0.003461122708333     0.000000000000000    -0.000000000000000
     0.000000000000000     0.003461122708333     0.000000000000000
     0.000000000000000     0.000000000000000    -0.000764187291667
   2   4
    -0.017966810625000     0.000000000000000     0.000000000000000
    -0.000000000000000     0.232564409375000    -0.000000000000000
     0.000000000000000    -0.000000000000000    -0.017966810625000
   2   5
     0.003461122708333     0.000000000000000     0.000000000000000
    -0.000000000000000    -0.000764187291667     0.000000000000000
     0.000000000000000     0.000000000000000     0.003461122708333
   2   6
    -0.017966810625000     0.000000000000000    -0.000000000000000
    -0.000000000000000    -0.017966810625000    -0.000000000000000
     0.000000000000000    -0.000000000000000     0.232564409375000
   2   7
     0.000764206041667     0.000000000000000     0.000000000000000
    -0.000000000000000     0.000764206041667    -0.000000000000000
     0.000000000000000    -0.000000000000000     0.000764206041667
   2   8
    -0.000764187291667    -0.000000000000000     0.000000000000000
    -0.000000000000000     0.003461122708333    -0.000000000000000
     0.000000000000000    -0.000000000000000     0.003461122708333
   2   9
     0.002217546041667     0.000000000000000    -0.000000000000000
    -0.000000000000000    -0.000152268958333     0.001120615000000
     0.000000000000000     0.001120615000000    -0.000152268958333
   2  10
    -0.000684807291667     0.000000000000000     0.000000000000000
    -0.000000000000000    -0.211393223958333    -0.214999628333333
    -0.000000000000000    -0.214999628333333    -0.211393223958333
   2  11
     0.002217546041667     0.000000000000000     0.000000000000000
    -0.000000000000000    -0.000152268958333    -0.001120615000000
     0.000000000000000    -0.001120615000000    -0.000152268958333
   2  12
    -0.000684807291667     0.000000000000000    -0.000000000000000
    -0.000000000000000    -0.211393223958333     0.214999628333333
    -0.000000000000000     0.214999628333333    -0.211393223958333
   2  13
     0.002217546041667     0.000000000000000     0.000000000000000
    -0.000000000000000    -0.000152268958333    -0.001120615000000
     0.000000000000000    -0.001120615000000    -0.000152268958333
   2  14
    -0.000684807291667     0.000000000000000    -0.000000000000000
    -0.000000000000000    -0.211393223958333     0.214999628333333
    -0.000000000000000     0.214999628333333    -0.211393223958333
   2  15
     0.002217546041667     0.000000000000000    -0.000000000000000
    -0.000000000000000    -0.000152268958333     0.001120615000000
     0.000000000000000     0.001120615000000    -0.000152268958333
   2  16
    -0.000684807291667     0.000000000000000     0.000000000000000
    -0.000000000000000    -0.211393223958333    -0.214999628333333
    -0.000000000000000    -0.214999628333333    -0.211393223958333
   2  17
    -0.211393223958333     0.000000000000000     0.214999628333333
    -0.000000000000000    -0.000684807291667     0.000000000000000
     0.214999628333333     0.000000000000000    -0.211393223958333
   2  18
    -0.211393223958333     0.000000000000000    -0.214999628333333
    -0.000000000000000    -0.000684807291667    -0.000000000000000
    -0.214999628333333    -0.000000000000000    -0.211393223958333
   2  19
    -0.000152268958333     0.000000000000000    -0.001120615000000
    -0.000000000000000     0.002217546041667    -0.000000000000000
    -0.001120615000000    -0.000000000000000    -0.000152268958333
   2  20
    -0.000152268958333     0.000000000000000     0.001120615000000
    -0.000000000000000     0.002217546041667     0.000000000000000
     0.001120615000000     0.000000000000000    -0.000152268958333
   2  21
    -0.211393223958333     0.000000000000000    -0.214999628333333
    -0.000000000000000    -0.000684807291667    -0.000000000000000
    -0.214999628333333    -0.000000000000000    -0.211393223958333
   2  22
    -0.211393223958333     0.000000000000000     0.214999628333333
    -0.000000000000000    -0.000684807291667     0.000000000000000
     0.214999628333333    -0.000000000000000    -0.211393223958333
   2  23
    -0.000152268958333     0.000000000000000     0.001120615000000
    -0.000000000000000     0.002217546041667     0.000000000000000
     0.001120615000000     0.000000000000000    -0.000152268958333
   2  24
    -0.000152268958333     0.000000000000000    -0.001120615000000
    -0.000000000000000     0.002217546041667    -0.000000000000000
    -0.001120615000000     0.000000000000000    -0.000152268958333
   2  25
    -0.211393223958333     0.214999628333333    -0.000000000000000
     0.214999628333333    -0.211393223958333     0.000000000000000
     0.000000000000000     0.000000000000000    -0.000684807291667
   2  26
    -0.211393223958333    -0.214999628333333    -0.000000000000000
    -0.214999628333333    -0.211393223958333     0.000000000000000
     0.000000000000000    -0.000000000000000    -0.000684807291667
   2  27
    -0.211393223958333    -0.214999628333333    -0.000000000000000
    -0.214999628333333    -0.211393223958333    -0.000000000000000
     0.000000000000000    -0.000000000000000    -0.000684807291667
   2  28
    -0.211393223958333     0.214999628333333    -0.000000000000000
     0.214999628333333    -0.211393223958333    -0.000000000000000
     0.000000000000000    -0.000000000000000    -0.000684807291667
   2  29
    -0.000152268958333    -0.001120615000000     0.000000000000000
    -0.001120615000000    -0.000152268958333    -0.000000000000000
     0.000000000000000    -0.000000000000000     0.002217546041667
   2  30
    -0.000152268958333     0.001120615000000     0.000000000000000
     0.001120615000000    -0.000152268958333    -0.000000000000000
     0.000000000000000    -0.000000000000000     0.002217546041667
   2  31
    -0.000152268958333     0.001120615000000     0.000000000000000
     0.001120615000000    -0.000152268958333     0.000000000000000
     0.000000000000000     0.000000000000000     0.002217546041667
   2  32
    -0.000152268958333    -0.001120615000000     0.000000000000000
    -0.001120615000000    -0.000152268958333    -0.000000000000000
     0.000000000000000    -0.000000000000000     0.002217546041667
   2  33
     0.004117370781250    -0.005284779166667    -0.005284779166667
    -0.005284779166667     0.004117370781250     0.005284779166667
    -0.005284779166667     0.005284779166667     0.004117370781250
   2  34
     0.004117370781250     0.005284779166667     0.005284779166667
     0.005284779166667     0.004117370781250     0.005284779166667
     0.005284779166667     0.005284779166667     0.004117370781250
   2  35
     0.004117370781250     0.005284779166667    -0.005284779166667
     0.005284779166667     0.004117370781250    -0.005284779166667
    -0.005284779166667    -0.005284779166667     0.004117370781250
   2  36
     0.004117370781250    -0.005284779166667     0.005284779166667
    -0.005284779166667     0.004117370781250    -0.005284779166667
     0.005284779166667    -0.005284779166667     0.004117370781250
   2  37
     0.004117370781250    -0.005284779166667     0.005284779166667
    -0.005284779166667     0.004117370781250    -0.005284779166667
     0.005284779166667    -0.005284779166667     0.004117370781250
   2  38
     0.004117370781250     0.005284779166667    -0.005284779166667
     0.005284779166667     0.004117370781250    -0.005284779166667
    -0.005284779166667    -0.005284779166667     0.004117370781250
   2  39
     0.004117370781250     0.005284779166667     0.005284779166667
     0.005284779166667     0.004117370781250     0.005284779166667
     0.005284779166667     0.005284779166667     0.004117370781250
   2  40
     0.004117370781250    -0.005284779166667    -0.005284779166667
    -0.005284779166667     0.004117370781250     0.005284779166667
    -0.005284779166667     0.005284779166667     0.004117370781250
   2  41
    -2.083804189218749     0.000000000000000    -0.000000000000000
    -0.000000000000000    -0.248740185052083     0.000000000000000
     0.000000000000000     0.000000000000000    -0.248740185052083
   2  42
    -2.083804189218749     0.000000000000000    -0.000000000000000
    -0.000000000000000    -0.248740185052083    -0.000000000000000
     0.000000000000000    -0.000000000000000    -0.248740185052083
   2  43
    -0.000198720885417     0.000000000000000    -0.000000000000000
    -0.000000000000000    -0.005974470052083    -0.000000000000000
     0.000000000000000    -0.000000000000000     0.004242439947917
   2  44
    -0.000198720885417     0.000000000000000    -0.000000000000000
    -0.000000000000000    -0.005974470052083    -0.000000000000000
     0.000000000000000    -0.000000000000000     0.004242439947917
   2  45
    -0.000198720885417     0.000000000000000     0.000000000000000
    -0.000000000000000     0.004242439947917    -0.000000000000000
     0.000000000000000    -0.000000000000000    -0.005974470052083
   2  46
    -0.000198720885417     0.000000000000000     0.000000000000000
    -0.000000000000000     0.004242439947917    -0.000000000000000
     0.000000000000000    -0.000000000000000    -0.005974470052083
   2  47
    -0.000000000052083     0.000000000000000     0.000000000000000
    -0.000000000000000    -0.003863751718750     0.000000000000000
     0.000000000000000     0.000000000000000    -0.003863751718750
   2  48
    -0.000000000052083     0.000000000000000     0.000000000000000
    -0.000000000000000    -0.003863751718750    -0.000000000000000
     0.000000000000000    -0.000000000000000    -0.003863751718750
   2  49
    -0.005974470052083     0.000000000000000     0.000000000000000
    -0.000000000000000    -0.000198720885417     0.000000000000000
     0.000000000000000    -0.000000000000000     0.004242439947917
   2  50
    -0.248740185052083     0.000000000000000    -0.000000000000000
    -0.000000000000000    -2.083804189218750    -0.000000000000000
    -0.000000000000000    -0.000000000000000    -0.248740185052083
   2  51
    -0.005974470052083     0.000000000000000     0.000000000000000
    -0.000000000000000    -0.000198720885417     0.000000000000000
     0.000000000000000     0.000000000000000     0.004242439947917
   2  52
    -0.248740185052083     0.000000000000000     0.000000000000000
    -0.000000000000000    -2.083804189218750    -0.000000000000000
     0.000000000000000     0.000000000000000    -0.248740185052083
   2  53
    -0.003863751718750     0.000000000000000    -0.000000000000000
    -0.000000000000000    -0.000000000052083    -0.000000000000000
    -0.000000000000000     0.000000000000000    -0.003863751718750
   2  54
     0.004242439947917     0.000000000000000     0.000000000000000
    -0.000000000000000    -0.000198720885417    -0.000000000000000
     0.000000000000000    -0.000000000000000    -0.005974470052083
   2  55
    -0.003863751718750     0.000000000000000     0.000000000000000
    -0.000000000000000    -0.000000000052083    -0.000000000000000
     0.000000000000000    -0.000000000000000    -0.003863751718750
   2  56
     0.004242439947917     0.000000000000000     0.000000000000000
    -0.000000000000000    -0.000198720885417    -0.000000000000000
     0.000000000000000    -0.000000000000000    -0.005974470052083
   2  57
    -0.005974470052083     0.000000000000000     0.000000000000000
     0.000000000000000     0.004242439947917    -0.000000000000000
    -0.000000000000000    -0.000000000000000    -0.000198720885417
   2  58
    -0.248740185052083    -0.000000000000000    -0.000000000000000
    -0.000000000000000    -0.248740185052083    -0.000000000000000
     0.000000000000000    -0.000000000000000    -2.083804189218750
   2  59
    -0.003863751718750     0.000000000000000     0.000000000000000
    -0.000000000000000    -0.003863751718750     0.000000000000000
    -0.000000000000000     0.000000000000000    -0.000000000052083
   2  60
     0.004242439947917     0.000000000000000     0.000000000000000
    -0.000000000000000    -0.005974470052083    -0.000000000000000
     0.000000000000000    -0.000000000000000    -0.000198720885417
   2  61
    -0.005974470052083     0.000000000000000     0.000000000000000
    -0.000000000000000     0.004242439947917     0.000000000000000
    -0.000000000000000    -0.000000000000000    -0.000198720885417
   2  62
    -0.248740185052083     0.000000000000000     0.000000000000000
    -0.000000000000000    -0.248740185052083    -0.000000000000000
     0.000000000000000    -0.000000000000000    -2.083804189218750
   2  63
    -0.003863751718750     0.000000000000000     0.000000000000000
    -0.000000000000000    -0.003863751718750    -0.000000000000000
    -0.000000000000000     0.000000000000000    -0.000000000052083
   2  64
     0.004242439947917     0.000000000000000     0.000000000000000
    -0.000000000000000    -0.005974470052083    -0.000000000000000
     0.000000000000000    -0.000000000000000    -0.000198720885417
   3   1
    -0.017966810625000     0.000000000000000    -0.000000000000000
    -0.000000000000000     0.232564409375000    -0.000000000000000
    -0.000000000000000     0.000000000000000    -0.017966810625000
   3   2
     0.003461122708333     0.000000000000000     0.000000000000000
     0.000000000000000     0.003461122708333     0.000000000000000
    -0.000000000000000     0.000000000000000    -0.000764187291667
   3   3
     6.635488099375003    -0.000000000000000     0.000000000000000
    -0.000000000000000     6.635488099375003     0.000000000000000
     0.000000000000000     0.000000000000000     6.635488099374999
   3   4
     0.232564409375000     0.000000000000000    -0.000000000000000
    -0.000000000000000    -0.017966810625000     0.000000000000000
     0.000000000000000     0.000000000000000    -0.017966810625000
   3   5
    -0.000764187291667     0.000000000000000    -0.000000000000000
    -0.000000000000000     0.003461122708333     0.000000000000000
     0.000000000000000     0.000000000000000     0.003461122708333
   3   6
     0.000764206041667     0.000000000000000    -0.000000000000000
    -0.000000000000000     0.000764206041667     0.000000000000000
    -0.000000000000000     0.000000000000000     0.000764206041667
   3   7
    -0.017966810625000     0.000000000000000     0.000000000000000
    -0.000000000000000    -0.017966810625000     0.000000000000000
    -0.000000000000000     0.000000000000000     0.232564409375000
   3   8
     0.003461122708333     0.000000000000000    -0.000000000000000
     0.000000000000000    -0.000764187291667     0.000000000000000
    -0.000000000000000     0.000000000000000     0.003461122708333
   3   9
    -0.000684807291667     0.000000000000000    -0.000000000000000
    -0.000000000000000    -0.211393223958333     0.214999628333333
     0.000000000000000     0.214999628333333    -0.211393223958333
   3  10
     0.002217546041667     0.000000000000000     0.000000000000000
    -0.000000000000000    -0.000152268958333    -0.001120615000000
    -0.000000000000000    -0.001120615000000    -0.000152268958333
   3  11
    -0.000684807291667     0.000000000000000     0.000000000000000
    -0.000000000000000    -0.211393223958333    -0.214999628333333
     0.000000000000000    -0.214999628333333    -0.211393223958333
   3  12
     0.002217546041667     0.000000000000000    -0.000000000000000
    -0.000000000000000    -0.000152268958333     0.001120615000000
    -0.000000000000000     0.001120615000000    -0.000152268958333
   3  13
    -0.000684807291667     0.000000000000000     0.000000000000000
    -0.000000000000000    -0.211393223958333    -0.214999628333333
     0.000000000000000    -0.214999628333333    -0.211393223958333
   3  14
     0.002217546041667     0.000000000000000    -0.000000000000000
    -0.000000000000000    -0.000152268958333     0.001120615000000
    -0.000000000000000     0.001120615000000    -0.000152268958333
   3  15
    -0.000684807291667     0.000000000000000    -0.000000000000000
    -0.000000000000000    -0.211393223958333     0.214999628333333