 1046

    1
0.0000000000e+00 0.0000000000e+00 0.0000000000e+00
0.0000000000e+00 0.0000000000e+00 0.0000000000e+00
     1      1      1
 1  1  1     0.0000000000e+00
 1  1  2     0.0000000000e+00
 1  1  3     0.0000000000e+00
 1  2  1     0.0000000000e+00
 1  2  2     0.0000000000e+00
 1  2  3     0.0000000000e+00
 1  3  1     0.0000000000e+00
 1  3  2     0.0000000000e+00
 1  3  3     0.0000000000e+00
 2  1  1     0.0000000000e+00
 2  1  2     0.0000000000e+00
 2  1  3     0.0000000000e+00
 2  2  1     0.0000000000e+00
 2  2  2     0.0000000000e+00
 2  2  3     0.0000000000e+00
 2  3  1     0.0000000000e+00
 2  3  2     0.0000000000e+00
 2  3  3     0.0000000000e+00
 3  1  1     0.0000000000e+00
 3  1  2     0.0000000000e+00
 3  1  3     0.0000000000e+00
 3  2  1     0.0000000000e+00
 3  2  2     0.0000000000e+00
 3  2  3     0.0000000000e+00
 3  3  1     0.0000000000e+00
 3  3  2     0.0000000000e+00
 3  3  3     0.0000000000e+00

    2
0.0000000000e+00 0.0000000000e+00 0.0000000000e+00
0.0000000000e+00 0.0000000000e+00 0.0000000000e+00
     1      1      2
 1  1  1     7.2774944143e-03
 1  1  2     6.1206729030e-03
 1  1  3     4.3279693151e-03
 1  2  1     6.0109543791e-03
 1  2  2     2.3624854520e-03
 1  2  3     3.6461783317e-03
 1  3  1     4.2503866029e-03
 1  3  2     3.6461783317e-03
 1  3  3    -2.1575197172e-04
 2  1  1     6.0109543791e-03
 2  1  2     2.3624854520e-03
 2  1  3     3.6461783317e-03
 2  2  1     2.5525235099e-03
 2  2  2    -4.4530940837e-04
 2  2  3     1.1772523243e-04
 2  3  1     3.6461783317e-03
 2  3  2     4.0142520160e-05
 2  3  3    -1.2456445895e-04
 3  1  1     4.2503866029e-03
 3  1  2     3.6461783317e-03
 3  1  3    -2.1575197172e-04
 3  2  1     3.6461783317e-03
 3  2  2     4.0142520160e-05
 3  2  3    -1.2456445895e-04
 3  3  1    -2.5713913810e-05
 3  3  2    -1.4845935060e-05
 3  3  3    -4.4310419616e-04

    3
0.0000000000e+00 0.0000000000e+00 0.0000000000e+00
3.9980874304e+00 -3.8090000000e-13 -2.6930000000e-13
     1      1      1
 1  1  1    -1.0438217992e+00
 1  1  2     0.0000000000e+00
 1  1  3     0.0000000000e+00
 1  2  1     0.0000000000e+00
 1  2  2     1.0683155998e-01
 1  2  3    -2.3764951930e-05
 1  3  1     0.0000000000e+00
 1  3  2    -2.3764951930e-05
 1  3  3     1.0684836434e-01
 2  1  1     0.0000000000e+00
 2  1  2     1.0683155998e-01
 2  1  3    -2.3764951930e-05
 2  2  1     1.0717155927e-01
 2  2  2     0.0000000000e+00
 2  2  3     0.0000000000e+00
 2  3  1     6.8215562255e-04
 2  3  2     0.0000000000e+00
 2  3  3     0.0000000000e+00
 3  1  1     0.0000000000e+00
 3  1  2    -2.3764951930e-05
 3  1  3     1.0684836434e-01
 3  2  1     6.8215562255e-04
 3  2  2     0.0000000000e+00
 3  2  3     0.0000000000e+00
 3  3  1     1.0668920240e-01
 3  3  2     0.0000000000e+00
 3  3  3     0.0000000000e+00

    4
0.0000000000e+00 0.0000000000e+00 0.0000000000e+00
-7.9961748609e+00 7.6180000000e-13 5.3860000000e-13
     1      1      2
 1  1  1    -7.2774944136e-03
 1  1  2     6.1206729027e-03
 1  1  3     4.3279693149e-03
 1  2  1     6.0109543788e-03
 1  2  2    -2.3624854520e-03
 1  2  3    -3.6461783317e-03
 1  3  1     4.2503866027e-03
 1  3  2    -3.6461783317e-03
 1  3  3     2.1575197171e-04
 2  1  1     6.0109543788e-03
 2  1  2    -2.3624854520e-03
 2  1  3    -3.6461783317e-03
 2  2  1    -2.5525235099e-03
 2  2  2    -4.4530940836e-04
 2  2  3     1.1772523243e-04
 2  3  1    -3.6461783317e-03
 2  3  2     4.0142520161e-05
 2  3  3    -1.2456445894e-04
 3  1  1     4.2503866027e-03
 3  1  2    -3.6461783317e-03
 3  1  3     2.1575197171e-04
 3  2  1    -3.6461783317e-03
 3  2  2     4.0142520161e-05
 3  2  3    -1.2456445894e-04
 3  3  1     2.5713913803e-05
 3  3  2    -1.4845935045e-05
 3  3  3    -4.4310419616e-04

    5
0.0000000000e+00 0.0000000000e+00 0.0000000000e+00
-3.9980874304e+00 3.8090000000e-13 2.6930000000e-13
     1      1      1
 1  1  1     1.0438217992e+00
 1  1  2     0.0000000000e+00
 1  1  3     0.0000000000e+00
 1  2  1     0.0000000000e+00
 1  2  2    -1.0683155998e-01
 1  2  3     2.3764951930e-05
 1  3  1     0.0000000000e+00
 1  3  2     2.3764951930e-05
 1  3  3    -1.0684836434e-01
 2  1  1     0.0000000000e+00
 2  1  2    -1.0683155998e-01
 2  1  3     2.3764951930e-05
 2  2  1    -1.0717155927e-01
 2  2  2     0.0000000000e+00
 2  2  3     0.0000000000e+00
 2  3  1    -6.8215562255e-04
 2  3  2     0.0000000000e+00
 2  3  3     0.0000000000e+00
 3  1  1     0.0000000000e+00
 3  1  2     2.3764951930e-05
 3  1  3    -1.0684836434e-01
 3  2  1    -6.8215562255e-04
 3  2  2     0.0000000000e+00
 3  2  3     0.0000000000e+00
 3  3  1    -1.0668920240e-01
 3  3  2     0.0000000000e+00
 3  3  3     0.0000000000e+00

    6
0.0000000000e+00 0.0000000000e+00 0.0000000000e+00
-3.9980874304e+00 3.8090000000e-13 2.6930000000e-13
     1      1      2
 1  1  1     0.0000000000e+00
 1  1  2     5.2612528803e-01
 1  1  3     3.7202675892e-01
 1  2  1     5.2716749744e-01
 1  2  2     0.0000000000e+00
 1  2  3     0.0000000000e+00
 1  3  1     3.7276371226e-01
 1  3  2     0.0000000000e+00
 1  3  3     0.0000000000e+00
 2  1  1     5.2716749744e-01
 2  1  2     0.0000000000e+00
 2  1  3     0.0000000000e+00
 2  2  1     0.0000000000e+00
 2  2  2    -8.0226420600e+00
 2  2  3    -6.4183920282e+00
 2  3  1     0.0000000000e+00
 2  3  2    -6.4176550748e+00
 2  3  3    -4.2743836740e+00
 3  1  1     3.7276371226e-01
 3  1  2     0.0000000000e+00
 3  1  3     0.0000000000e+00
 3  2  1     0.0000000000e+00
 3  2  2    -6.4176550748e+00
 3  2  3    -4.2743836740e+00
 3  3  1     0.0000000000e+00
 3  3  2    -4.2754258834e+00
 3  3  3    -2.2776552101e+00

    7
0.0000000000e+00 0.0000000000e+00 0.0000000000e+00
1.9990437153e+00 3.4624452813e+00 9.8600000000e-14
     1      1      1
 1  1  1    -1.0164720199e-02
 1  1  2    -2.0264350157e-01
 1  1  3    -2.0581050635e-05
 1  2  1    -2.0293794959e-01
 1  2  2    -4.5833039944e-01
 1  2  3    -1.1882475964e-05
 1  3  1     2.8509152465e-04
 1  3  2     5.1755795487e-04
 1  3  3     5.3424182172e-02
 2  1  1    -2.0293794959e-01
 2  1  2    -4.5833039944e-01
 2  1  3    -1.1882475964e-05
 2  2  1    -4.5816039980e-01
 2  2  2    -6.0851940071e-01
 2  2  3     2.0581047694e-05
 2  3  1    -1.8836261960e-04
 2  3  2    -2.8509152759e-04
 2  3  3     9.2533397873e-02
 3  1  1     2.8509152465e-04
 3  1  2     5.1755795487e-04
 3  1  3     5.3424182172e-02
 3  2  1    -1.8836261960e-04
 3  2  2    -2.8509152759e-04
 3  2  3     9.2533397873e-02
 3  3  1     5.3344601202e-02
 3  3  2     9.2395559590e-02
 3  3  3     0.0000000000e+00

    8
0.0000000000e+00 0.0000000000e+00 0.0000000000e+00
-3.9980874305e+00 -6.9248905627e+00 -1.9720000000e-13
     1      1      2
 1  1  1     1.7270363896e-14
 1  1  2     1.6995724962e-03
 1  1  3    -1.9873968089e-03
 1  2  1     1.9190095439e-03
 1  2  2    -1.2451208757e-13
 1  2  3     9.6309150944e-14
 1  3  1    -2.0649795211e-03
 1  3  2     9.0450195515e-14
 1  3  3    -3.9740442968e-16
 2  1  1     1.9190095439e-03
 2  1  2    -1.2299858742e-13
 2  1  3     9.5555137502e-14
 2  2  1    -1.2037666989e-13
 2  2  2    -1.3050299486e-02
 2  2  3     6.4330913564e-03
 2  3  1     9.2294946648e-14
 2  3  2     6.3555086442e-03
 2  3  3     2.4912891792e-04
 3  1  1    -2.0649795211e-03
 3  1  2     9.0180240701e-14
 3  1  3    -3.8443037608e-16
 3  2  1     9.3216648909e-14
 3  2  2     6.3555086442e-03
 3  2  3     2.4912891792e-04
 3  3  1    -2.9732642999e-15
 3  3  2     2.9691870129e-05
 3  3  3    -4.4310419614e-04

    9
0.0000000000e+00 0.0000000000e+00 0.0000000000e+00
-1.9990437152e+00 3.4624452813e+00 3.6790000000e-13
     1      1      1
 1  1  1     1.0164720182e-02
 1  1  2    -2.0264350154e-01
 1  1  3    -2.0581052777e-05
 1  2  1    -2.0293794956e-01
 1  2  2     4.5833039943e-01
 1  2  3     1.1882477832e-05
 1  3  1     2.8509152250e-04
 1  3  2    -5.1755795302e-04
 1  3  3    -5.3424182169e-02
 2  1  1    -2.0293794956e-01
 2  1  2     4.5833039943e-01
 2  1  3     1.1882477832e-05
 2  2  1     4.5816039978e-01
 2  2  2    -6.0851940071e-01
 2  2  3     2.0581047683e-05
 2  3  1     1.8836262146e-04
 2  3  2    -2.8509152760e-04
 2  3  3     9.2533397873e-02
 3  1  1     2.8509152250e-04
 3  1  2    -5.1755795302e-04
 3  1  3    -5.3424182169e-02
 3  2  1     1.8836262146e-04
 3  2  2    -2.8509152760e-04
 3  2  3     9.2533397873e-02
 3  3  1    -5.3344601200e-02
 3  3  2     9.2395559590e-02
 3  3  3     0.0000000000e+00

   10
0.0000000000e+00 0.0000000000e+00 0.0000000000e+00
-1.9990437153e+00 -3.4624452813e+00 -9.8600000000e-14
     1      1      1
 1  1  1     1.0164720199e-02
 1  1  2     2.0264350157e-01
 1  1  3     2.0581050635e-05
 1  2  1     2.0293794959e-01
 1  2  2     4.5833039944e-01
 1  2  3     1.1882475964e-05
 1  3  1    -2.8509152465e-04
 1  3  2    -5.1755795487e-04
 1  3  3    -5.3424182172e-02
 2  1  1     2.0293794959e-01
 2  1  2     4.5833039944e-01
 2  1  3     1.1882475964e-05
 2  2  1     4.5816039980e-01
 2  2  2     6.0851940071e-01
 2  2  3    -2.0581047694e-05
 2  3  1     1.8836261960e-04
 2  3  2     2.8509152759e-04
 2  3  3    -9.2533397873e-02
 3  1  1    -2.8509152465e-04
 3  1  2    -5.1755795487e-04
 3  1  3    -5.3424182172e-02
 3  2  1     1.8836261960e-04
 3  2  2     2.8509152759e-04
 3  2  3    -9.2533397873e-02
 3  3  1    -5.3344601202e-02
 3  3  2    -9.2395559590e-02
 3  3  3     0.0000000000e+00

   11
0.0000000000e+00 0.0000000000e+00 0.0000000000e+00
-1.9990437153e+00 -3.4624452813e+00 -9.8600000000e-14
     1      1      2
 1  1  1    -4.8686791832e+00
 1  1  2     3.3381007347e+00
 1  1  3    -4.7207873313e+00
 1  2  1     3.3375796300e+00
 1  2  2    -1.6225922014e+00
 1  2  3     2.9403375861e+00
 1  3  1    -4.7200503779e+00
 1  3  2     2.9403375861e+00
 1  3  3    -3.7017248472e+00
 2  1  1     3.3375796300e+00
 2  1  2    -1.6225922014e+00
 2  1  3     2.9403375861e+00
 2  2  1    -1.6234947812e+00
 2  2  2     4.1015765155e-01
 2  2  3    -1.3255779380e+00
 2  3  1     2.9403375861e+00
 2  3  2    -1.3248409847e+00
 2  3  3     2.1371918371e+00
 3  1  1    -4.7200503779e+00
 3  1  2     2.9403375861e+00
 3  1  3    -3.7017248472e+00
 3  2  1     2.9403375861e+00
 3  2  2    -1.3248409847e+00
 3  2  3     2.1371918371e+00
 3  3  1    -3.7026274270e+00
 3  3  2     2.1377129418e+00
 3  3  3    -2.2776552101e+00

   12
0.0000000000e+00 0.0000000000e+00 0.0000000000e+00
1.9990437152e+00 -3.4624452813e+00 -3.6790000000e-13
     1      1      1
 1  1  1    -1.0164720182e-02
 1  1  2     2.0264350154e-01
 1  1  3     2.0581052777e-05
 1  2  1     2.0293794956e-01
 1  2  2    -4.5833039943e-01
 1  2  3    -1.1882477832e-05
 1  3  1    -2.8509152250e-04
 1  3  2     5.1755795302e-04
 1  3  3     5.3424182169e-02
 2  1  1     2.0293794956e-01
 2  1  2    -4.5833039943e-01
 2  1  3    -1.1882477832e-05
 2  2  1    -4.5816039978e-01
 2  2  2     6.0851940071e-01
 2  2  3    -2.0581047683e-05
 2  3  1    -1.8836262146e-04
 2  3  2     2.8509152760e-04
 2  3  3    -9.2533397873e-02
 3  1  1    -2.8509152250e-04
 3  1  2     5.1755795302e-04
 3  1  3     5.3424182169e-02
 3  2  1    -1.8836262146e-04
 3  2  2     2.8509152760e-04
 3  2  3    -9.2533397873e-02
 3  3  1     5.3344601200e-02
 3  3  2    -9.2395559590e-02
 3  3  3     0.0000000000e+00

   13
0.0000000000e+00 0.0000000000e+00 0.0000000000e+00
-5.9971311457e+00 -3.4624452813e+00 1.7070000000e-13
     1      1      2
 1  1  1     4.8686791836e+00
 1  1  2     3.3381007347e+00
 1  1  3    -4.7207873314e+00
 1  2  1     3.3375796300e+00
 1  2  2     1.6225922013e+00
 1  2  3    -2.9403375860e+00
 1  3  1    -4.7200503781e+00
 1  3  2    -2.9403375860e+00
 1  3  3     3.7017248471e+00
 2  1  1     3.3375796300e+00
 2  1  2     1.6225922013e+00
 2  1  3    -2.9403375860e+00
 2  2  1     1.6234947812e+00
 2  2  2     4.1015765148e-01
 2  2  3    -1.3255779379e+00
 2  3  1    -2.9403375860e+00
 2  3  2    -1.3248409846e+00
 2  3  3     2.1371918370e+00
 3  1  1    -4.7200503781e+00
 3  1  2    -2.9403375860e+00
 3  1  3     3.7017248471e+00
 3  2  1    -2.9403375860e+00
 3  2  2    -1.3248409846e+00
 3  2  3     2.1371918370e+00
 3  3  1     3.7026274269e+00
 3  3  2     2.1377129417e+00
 3  3  3    -2.2776552099e+00

   14
0.0000000000e+00 0.0000000000e+00 0.0000000000e+00
1.9990437153e+00 1.1541484271e+00 3.2644247172e+00
     1      1      1
 1  1  1    -1.0164720195e-02
 1  1  2    -6.7567237853e-02
 1  1  3    -1.9104726514e-01
 1  2  1    -6.7377196325e-02
 1  2  2    -3.2785195307e-03
 1  2  3    -1.6036757707e-01
 1  3  1    -1.9142676426e-01
 1  3  2    -1.6089701751e-01
 1  3  3    -4.0162769773e-01
 2  1  1    -6.7377196325e-02
 2  1  2    -3.2785195307e-03
 2  1  3    -1.6036757707e-01
 2  2  1    -3.6076811130e-03
 2  2  2     5.9615738253e-02
 2  2  3    -5.8707375390e-03
 2  3  1    -1.6089701751e-01
 2  3  2    -5.6388915013e-03
 2  3  3    -2.3187985939e-01
 3  1  1    -1.9142676426e-01
 3  1  2    -1.6089701751e-01
 3  1  3    -4.0162769773e-01
 3  2  1    -1.6089701751e-01
 3  2  2    -5.6388915013e-03
 3  2  3    -2.3187985939e-01
 3  3  1    -4.0120811747e-01
 3  3  2    -2.3163761462e-01
 3  3  3    -4.8074234679e-01

   15
0.0000000000e+00 0.0000000000e+00 0.0000000000e+00
-3.9980874305e+00 -2.3082968542e+00 -6.5288494344e+00
     1      1      2
 1  1  1     2.0978369207e-15
 1  1  2    -1.3072115153e-03
 1  1  3     2.2648379191e-03
 1  2  1    -1.3072115153e-03
 1  2  2     3.9158479190e-14
 1  2  3     3.3136470007e-14
 1  3  1     2.4975860559e-03
 1  3  2     3.9482729165e-14
 1  3  3    -1.6518148015e-13
 2  1  1    -1.3072115153e-03
 2  1  2     3.9574117443e-14
 2  1  3     3.3920739928e-14
 2  2  1     3.8001051999e-14
 2  2  2     1.3072115152e-03
 2  2  3     2.2648379192e-03
 2  3  1     3.9860624000e-14
 2  3  2     2.4975860560e-03
 2  3  3     1.6540702642e-13
 3  1  1     2.4975860559e-03
 3  1  2     3.9828963862e-14
 3  1  3    -1.6563152410e-13
 3  2  1     3.8984874287e-14
 3  2  2     2.4975860560e-03
 3  2  3     1.6688196864e-13
 3  3  1    -1.6634476876e-13
 3  3  2     1.6864428304e-13
 3  3  3    -1.6537446892e-02

   16
0.0000000000e+00 0.0000000000e+00 0.0000000000e+00
-1.9990437152e+00 1.1541484271e+00 3.2644247172e+00
     1      1      1
 1  1  1     1.0164720178e-02
 1  1  2    -6.7567237846e-02
 1  1  3    -1.9104726512e-01
 1  2  1    -6.7377196318e-02
 1  2  2     3.2785195323e-03
 1  2  3     1.6036757707e-01
 1  3  1    -1.9142676423e-01
 1  3  2     1.6089701750e-01
 1  3  3     4.0162769771e-01
 2  1  1    -6.7377196318e-02
 2  1  2     3.2785195323e-03
 2  1  3     1.6036757707e-01
 2  2  1     3.6076811146e-03
 2  2  2     5.9615738253e-02
 2  2  3    -5.8707375391e-03
 2  3  1     1.6089701750e-01
 2  3  2    -5.6388915013e-03
 2  3  3    -2.3187985939e-01
 3  1  1    -1.9142676423e-01
 3  1  2     1.6089701750e-01
 3  1  3     4.0162769771e-01
 3  2  1     1.6089701750e-01
 3  2  2    -5.6388915013e-03
 3  2  3    -2.3187985939e-01
 3  3  1     4.0120811746e-01
 3  3  2    -2.3163761462e-01
 3  3  3    -4.8074234679e-01

   17
0.0000000000e+00 0.0000000000e+00 0.0000000000e+00
9.8680508209e-11 4.6165937084e+00 3.2644247172e+00
     1      1      1
 1  1  1     0.0000000000e+00
 1  1  2    -1.8737452008e-02
 1  1  3    -1.3249379377e-02
 1  2  1    -1.8957836434e-02
 1  2  2     0.0000000000e+00
 1  2  3     0.0000000000e+00
 1  3  1    -1.3405214699e-02
 1  3  2     0.0000000000e+00
 1  3  3     0.0000000000e+00
 2  1  1    -1.8957836434e-02
 2  1  2     0.0000000000e+00
 2  1  3     0.0000000000e+00
 2  2  1     0.0000000000e+00
 2  2  2     7.4090554074e-02
 2  2  3     7.9200362607e-02
 2  3  1     0.0000000000e+00
 2  3  2     7.9044527285e-02
 2  3  3     4.6414003042e-02
 3  1  1    -1.3405214699e-02
 3  1  2     0.0000000000e+00
 3  1  3     0.0000000000e+00
 3  2  1     0.0000000000e+00
 3  2  2     7.9044527285e-02
 3  2  3     4.6414003042e-02
 3  3  1     0.0000000000e+00
 3  3  2     4.6634387468e-02
 3  3  3     6.1650622166e-03

   18
0.0000000000e+00 0.0000000000e+00 0.0000000000e+00
-2.7755575616e-16 -2.3082968543e+00 3.2644247172e+00
     1      1      1
 1  1  1     0.0000000000e+00
 1  1  2    -6.1318550860e-02
 1  1  3     8.6717526250e-02
 1  2  1    -6.1698633917e-02
 1  2  2    -1.7528080347e-12
 1  2  3     6.2706767494e-13
 1  3  1     8.7255044863e-02
 1  3  2     6.1234206363e-13
 1  3  3     1.7528021016e-12
 2  1  1    -6.1698633917e-02
 2  1  2    -1.7528199135e-12
 2  1  3     6.2705740200e-13
 2  2  1    -1.7458677459e-12
 2  2  2     7.7221550076e-02
 2  2  3    -2.8363552894e-01
 2  3  1     6.1724962569e-13
 2  3  2    -2.8432070063e-01
 2  3  3     4.6375971880e-01
 3  1  1     8.7255044863e-02
 3  1  2     6.1236159854e-13
 3  1  3     1.7528138872e-12
 3  2  1     6.1727335079e-13
 3  2  2    -2.8432070063e-01
 3  2  3     4.6375971880e-01
 3  3  1     1.7458796085e-12
 3  3  2     4.6327522925e-01
 3  3  3    -4.8074234678e-01

   19
0.0000000000e+00 0.0000000000e+00 0.0000000000e+00
3.9980874304e+00 -2.3082968543e+00 3.2644247172e+00
     1      1      1
 1  1  1     3.5857465168e-02
 1  1  2    -3.9660153604e-02
 1  1  3     5.6087927109e-02
 1  2  1    -3.9549961391e-02
 1  2  2     1.1888868889e-02
 1  2  3    -4.0031912567e-02
 1  3  1     5.5932091787e-02
 1  3  2    -4.0031912567e-02
 1  3  3     4.0195705725e-02
 2  1  1    -3.9549961391e-02
 2  1  2     1.1888868889e-02
 2  1  3    -4.0031912567e-02
 2  2  1     1.2079727401e-02
 2  2  2     1.1983602569e-02
 2  2  3     9.8630561208e-03
 2  3  1    -4.0031912567e-02
 2  3  2     9.7072207989e-03
 2  3  3    -2.3207001522e-02
 3  1  1     5.5932091787e-02
 3  1  2    -4.0031912567e-02
 3  1  3     4.0195705725e-02
 3  2  1    -4.0031912567e-02
 3  2  2     9.7072207989e-03
 3  2  3    -2.3207001522e-02
 3  3  1     4.0386564236e-02
 3  3  2    -2.3317193735e-02
 3  3  3     6.1650622166e-03

   20
0.0000000000e+00 0.0000000000e+00 0.0000000000e+00
-3.9980874304e+00 -2.3082968543e+00 3.2644247172e+00
     1      1      1
 1  1  1    -3.5857465172e-02
 1  1  2    -3.9660153604e-02
 1  1  3     5.6087927111e-02
 1  2  1    -3.9549961391e-02
 1  2  2    -1.1888868888e-02
 1  2  3     4.0031912566e-02
 1  3  1     5.5932091789e-02
 1  3  2     4.0031912566e-02
 1  3  3    -4.0195705724e-02
 2  1  1    -3.9549961391e-02
 2  1  2    -1.1888868888e-02
 2  1  3     4.0031912566e-02
 2  2  1    -1.2079727399e-02
 2  2  2     1.1983602569e-02
 2  2  3     9.8630561197e-03
 2  3  1     4.0031912566e-02
 2  3  2     9.7072207978e-03
 2  3  3    -2.3207001520e-02
 3  1  1     5.5932091789e-02
 3  1  2     4.0031912566e-02
 3  1  3    -4.0195705724e-02
 3  2  1     4.0031912566e-02
 3  2  2     9.7072207978e-03
 3  2  3    -2.3207001520e-02
 3  3  1    -4.0386564235e-02
 3  3  2    -2.3317193733e-02
 3  3  3     6.1650622148e-03

   21
0.0000000000e+00 0.0000000000e+00 0.0000000000e+00
-3.9980874304e+00 -2.3082968543e+00 3.2644247172e+00
     1      1      2
 1  1  1    -2.0978369207e-15
 1  1  2     1.3072115153e-03
 1  1  3    -2.2648379191e-03
 1  2  1     1.3072115153e-03
 1  2  2    -3.9158479190e-14
 1  2  3    -3.3136470007e-14
 1  3  1    -2.4975860559e-03
 1  3  2    -3.9482729165e-14
 1  3  3     1.6518148015e-13
 2  1  1     1.3072115153e-03
 2  1  2    -3.9574117443e-14
 2  1  3    -3.3920739928e-14
 2  2  1    -3.8001051999e-14
 2  2  2    -1.3072115152e-03
 2  2  3    -2.2648379192e-03
 2  3  1    -3.9860624000e-14
 2  3  2    -2.4975860560e-03
 2  3  3    -1.6540702642e-13
 3  1  1    -2.4975860559e-03
 3  1  2    -3.9828963862e-14
 3  1  3     1.6563152410e-13
 3  2  1    -3.8984874287e-14
 3  2  2    -2.4975860560e-03
 3  2  3    -1.6688196864e-13
 3  3  1     1.6634476876e-13
 3  3  2    -1.6864428304e-13
 3  3  3     1.6537446892e-02

   22
0.0000000000e+00 0.0000000000e+00 0.0000000000e+00
-1.9990437153e+00 -1.1541484271e+00 -3.2644247172e+00
     1      1      1
 1  1  1     1.0164720195e-02
 1  1  2     6.7567237853e-02
 1  1  3     1.9104726514e-01
 1  2  1     6.7377196325e-02
 1  2  2     3.2785195307e-03
 1  2  3     1.6036757707e-01
 1  3  1     1.9142676426e-01
 1  3  2     1.6089701751e-01
 1  3  3     4.0162769773e-01
 2  1  1     6.7377196325e-02
 2  1  2     3.2785195307e-03
 2  1  3     1.6036757707e-01
 2  2  1     3.6076811130e-03
 2  2  2    -5.9615738253e-02
 2  2  3     5.8707375390e-03
 2  3  1     1.6089701751e-01
 2  3  2     5.6388915013e-03
 2  3  3     2.3187985939e-01
 3  1  1     1.9142676426e-01
 3  1  2     1.6089701751e-01
 3  1  3     4.0162769773e-01
 3  2  1     1.6089701751e-01
 3  2  2     5.6388915013e-03
 3  2  3     2.3187985939e-01
 3  3  1     4.0120811747e-01
 3  3  2     2.3163761462e-01
 3  3  3     4.8074234679e-01

   23
0.0000000000e+00 0.0000000000e+00 0.0000000000e+00
-1.9990437153e+00 -1.1541484271e+00 -3.2644247172e+00
     1      1      2
 1  1  1    -4.8686791836e+00
 1  1  2    -3.3381007347e+00
 1  1  3     4.7207873314e+00
 1  2  1    -3.3375796300e+00
 1  2  2    -1.6225922013e+00
 1  2  3     2.9403375860e+00
 1  3  1     4.7200503781e+00
 1  3  2     2.9403375860e+00
 1  3  3    -3.7017248471e+00
 2  1  1    -3.3375796300e+00
 2  1  2    -1.6225922013e+00
 2  1  3     2.9403375860e+00
 2  2  1    -1.6234947812e+00
 2  2  2    -4.1015765148e-01
 2  2  3     1.3255779379e+00
 2  3  1     2.9403375860e+00
 2  3  2     1.3248409846e+00
 2  3  3    -2.1371918370e+00
 3  1  1     4.7200503781e+00
 3  1  2     2.9403375860e+00
 3  1  3    -3.7017248471e+00
 3  2  1     2.9403375860e+00
 3  2  2     1.3248409846e+00
 3  2  3    -2.1371918370e+00
 3  3  1    -3.7026274269e+00
 3  3  2    -2.1377129417e+00
 3  3  3     2.2776552099e+00

   24
0.0000000000e+00 0.0000000000e+00 0.0000000000e+00
1.9990437152e+00 -1.1541484271e+00 -3.2644247172e+00
     1      1      1
 1  1  1    -1.0164720178e-02
 1  1  2     6.7567237846e-02
 1  1  3     1.9104726512e-01
 1  2  1     6.7377196318e-02
 1  2  2    -3.2785195323e-03
 1  2  3    -1.6036757707e-01
 1  3  1     1.9142676423e-01
 1  3  2    -1.6089701750e-01
 1  3  3    -4.0162769771e-01
 2  1  1     6.7377196318e-02
 2  1  2    -3.2785195323e-03
 2  1  3    -1.6036757707e-01
 2  2  1    -3.6076811146e-03
 2  2  2    -5.9615738253e-02
 2  2  3     5.8707375391e-03
 2  3  1    -1.6089701750e-01
 2  3  2     5.6388915013e-03
 2  3  3     2.3187985939e-01
 3  1  1     1.9142676423e-01
 3  1  2    -1.6089701750e-01
 3  1  3    -4.0162769771e-01
 3  2  1    -1.6089701750e-01
 3  2  2     5.6388915013e-03
 3  2  3     2.3187985939e-01
 3  3  1    -4.0120811746e-01
 3  3  2     2.3163761462e-01
 3  3  3     4.8074234679e-01

   25
0.0000000000e+00 0.0000000000e+00 0.0000000000e+00
-5.9971311457e+00 -1.1541484271e+00 -3.2644247172e+00
     1      1      2
 1  1  1     4.8686791832e+00
 1  1  2    -3.3381007347e+00
 1  1  3     4.7207873313e+00
 1  2  1    -3.3375796300e+00
 1  2  2     1.6225922014e+00
 1  2  3    -2.9403375861e+00
 1  3  1     4.7200503779e+00
 1  3  2    -2.9403375861e+00
 1  3  3     3.7017248472e+00
 2  1  1    -3.3375796300e+00
 2  1  2     1.6225922014e+00
 2  1  3    -2.9403375861e+00
 2  2  1     1.6234947812e+00
 2  2  2    -4.1015765155e-01
 2  2  3     1.3255779380e+00
 2  3  1    -2.9403375861e+00
 2  3  2     1.3248409847e+00
 2  3  3    -2.1371918371e+00
 3  1  1     4.7200503779e+00
 3  1  2    -2.9403375861e+00
 3  1  3     3.7017248472e+00
 3  2  1    -2.9403375861e+00
 3  2  2     1.3248409847e+00
 3  2  3    -2.1371918371e+00
 3  3  1     3.7026274270e+00
 3  3  2    -2.1377129418e+00
 3  3  3     2.2776552101e+00

   26
0.0000000000e+00 0.0000000000e+00 0.0000000000e+00
-2.7755575616e-16 2.3082968543e+00 -3.2644247172e+00
     1      1      1
 1  1  1     0.0000000000e+00
 1  1  2     6.1318550860e-02
 1  1  3    -8.6717526250e-02
 1  2  1     6.1698633917e-02
 1  2  2     1.7528080347e-12
 1  2  3    -6.2706767494e-13
 1  3  1    -8.7255044863e-02
 1  3  2    -6.1234206363e-13
 1  3  3    -1.7528021016e-12
 2  1  1     6.1698633917e-02
 2  1  2     1.7528199135e-12
 2  1  3    -6.2705740200e-13
 2  2  1     1.7458677459e-12
 2  2  2    -7.7221550076e-02
 2  2  3     2.8363552894e-01
 2  3  1    -6.1724962569e-13
 2  3  2     2.8432070063e-01
 2  3  3    -4.6375971880e-01
 3  1  1    -8.7255044863e-02
 3  1  2    -6.1236159854e-13
 3  1  3    -1.7528138872e-12
 3  2  1    -6.1727335079e-13
 3  2  2     2.8432070063e-01
 3  2  3    -4.6375971880e-01
 3  3  1    -1.7458796085e-12
 3  3  2    -4.6327522925e-01
 3  3  3     4.8074234678e-01

   27
0.0000000000e+00 0.0000000000e+00 0.0000000000e+00
3.9980874304e+00 2.3082968543e+00 -3.2644247172e+00
     1      1      1
 1  1  1     3.5857465172e-02
 1  1  2     3.9660153604e-02
 1  1  3    -5.6087927111e-02
 1  2  1     3.9549961391e-02
 1  2  2     1.1888868888e-02
 1  2  3    -4.0031912566e-02
 1  3  1    -5.5932091789e-02
 1  3  2    -4.0031912566e-02
 1  3  3     4.0195705724e-02
 2  1  1     3.9549961391e-02
 2  1  2     1.1888868888e-02
 2  1  3    -4.0031912566e-02
 2  2  1     1.2079727399e-02
 2  2  2    -1.1983602569e-02
 2  2  3    -9.8630561197e-03
 2  3  1    -4.0031912566e-02
 2  3  2    -9.7072207978e-03
 2  3  3     2.3207001520e-02
 3  1  1    -5.5932091789e-02
 3  1  2    -4.0031912566e-02
 3  1  3     4.0195705724e-02
 3  2  1    -4.0031912566e-02
 3  2  2    -9.7072207978e-03
 3  2  3     2.3207001520e-02
 3  3  1     4.0386564235e-02
 3  3  2     2.3317193733e-02
 3  3  3    -6.1650622148e-03

   28
0.0000000000e+00 0.0000000000e+00 0.0000000000e+00
-3.9980874304e+00 2.3082968543e+00 -3.2644247172e+00
     1      1      1
 1  1  1    -3.5857465168e-02
 1  1  2     3.9660153604e-02
 1  1  3    -5.6087927109e-02
 1  2  1     3.9549961391e-02
 1  2  2    -1.1888868889e-02
 1  2  3     4.0031912567e-02
 1  3  1    -5.5932091787e-02
 1  3  2     4.0031912567e-02
 1  3  3    -4.0195705725e-02
 2  1  1     3.9549961391e-02
 2  1  2    -1.1888868889e-02
 2  1  3     4.0031912567e-02
 2  2  1    -1.2079727401e-02
 2  2  2    -1.1983602569e-02
 2  2  3    -9.8630561208e-03
 2  3  1     4.0031912567e-02
 2  3  2    -9.7072207989e-03
 2  3  3     2.3207001522e-02
 3  1  1    -5.5932091787e-02
 3  1  2     4.0031912567e-02
 3  1  3    -4.0195705725e-02
 3  2  1     4.0031912567e-02
 3  2  2    -9.7072207989e-03
 3  2  3     2.3207001522e-02
 3  3  1    -4.0386564236e-02
 3  3  2     2.3317193735e-02
 3  3  3    -6.1650622166e-03

   29
0.0000000000e+00 0.0000000000e+00 0.0000000000e+00
-3.9980874304e+00 2.3082968543e+00 -3.2644247172e+00
     1      1      2
 1  1  1    -1.7270363896e-14
 1  1  2    -1.6995724962e-03
 1  1  3     1.9873968089e-03
 1  2  1    -1.9190095439e-03
 1  2  2     1.2451208757e-13
 1  2  3    -9.6309150944e-14
 1  3  1     2.0649795211e-03
 1  3  2    -9.0450195515e-14
 1  3  3     3.9740442968e-16
 2  1  1    -1.9190095439e-03
 2  1  2     1.2299858742e-13
 2  1  3    -9.5555137502e-14
 2  2  1     1.2037666989e-13
 2  2  2     1.3050299486e-02
 2  2  3    -6.4330913564e-03
 2  3  1    -9.2294946648e-14
 2  3  2    -6.3555086442e-03
 2  3  3    -2.4912891792e-04
 3  1  1     2.0649795211e-03
 3  1  2    -9.0180240701e-14
 3  1  3     3.8443037608e-16
 3  2  1    -9.3216648909e-14
 3  2  2    -6.3555086442e-03
 3  2  3    -2.4912891792e-04
 3  3  1     2.9732642999e-15
 3  3  2    -2.9691870129e-05
 3  3  3     4.4310419614e-04

   30
0.0000000000e+00 0.0000000000e+00 0.0000000000e+00
-3.9980874305e+00 -4.6165937084e+00 -3.2644247172e+00
     1      1      2
 1  1  1     0.0000000000e+00
 1  1  2    -5.2612528803e-01
 1  1  3    -3.7202675892e-01
 1  2  1    -5.2716749744e-01
 1  2  2     0.0000000000e+00
 1  2  3     0.0000000000e+00
 1  3  1    -3.7276371226e-01
 1  3  2     0.0000000000e+00
 1  3  3     0.0000000000e+00
 2  1  1    -5.2716749744e-01
 2  1  2     0.0000000000e+00
 2  1  3     0.0000000000e+00
 2  2  1     0.0000000000e+00
 2  2  2     8.0226420600e+00
 2  2  3     6.4183920282e+00
 2  3  1     0.0000000000e+00
 2  3  2     6.4176550748e+00
 2  3  3     4.2743836740e+00
 3  1  1    -3.7276371226e-01
 3  1  2     0.0000000000e+00
 3  1  3     0.0000000000e+00
 3  2  1     0.0000000000e+00
 3  2  2     6.4176550748e+00
 3  2  3     4.2743836740e+00
 3  3  1     0.0000000000e+00
 3  3  2     4.2754258834e+00
 3  3  3     2.2776552101e+00

   31
0.0000000000e+00 0.0000000000e+00 0.0000000000e+00
-9.8681618432e-11 -4.6165937084e+00 -3.2644247172e+00
     1      1      1
 1  1  1     0.0000000000e+00
 1  1  2     1.8737452008e-02
 1  1  3     1.3249379377e-02
 1  2  1     1.8957836434e-02
 1  2  2     0.0000000000e+00
 1  2  3     0.0000000000e+00
 1  3  1     1.3405214699e-02
 1  3  2     0.0000000000e+00
 1  3  3     0.0000000000e+00
 2  1  1     1.8957836434e-02
 2  1  2     0.0000000000e+00
 2  1  3     0.0000000000e+00
 2  2  1     0.0000000000e+00
 2  2  2    -7.4090554074e-02
 2  2  3    -7.9200362607e-02
 2  3  1     0.0000000000e+00
 2  3  2    -7.9044527285e-02
 2  3  3    -4.6414003042e-02
 3  1  1     1.3405214699e-02
 3  1  2     0.0000000000e+00
 3  1  3     0.0000000000e+00
 3  2  1     0.0000000000e+00
 3  2  2    -7.9044527285e-02
 3  2  3    -4.6414003042e-02
 3  3  1     0.0000000000e+00
 3  3  2    -4.6634387468e-02
 3  3  3    -6.1650622166e-03

   32
0.0000000000e+00 0.0000000000e+00 0.0000000000e+00
-9.8679953098e-11 -4.6165937084e+00 -3.2644247172e+00
     1      1      2
 1  1  1     7.2774944136e-03
 1  1  2    -6.1206729027e-03
 1  1  3    -4.3279693149e-03
 1  2  1    -6.0109543788e-03
 1  2  2     2.3624854520e-03
 1  2  3     3.6461783317e-03
 1  3  1    -4.2503866027e-03
 1  3  2     3.6461783317e-03
 1  3  3    -2.1575197171e-04
 2  1  1    -6.0109543788e-03
 2  1  2     2.3624854520e-03
 2  1  3     3.6461783317e-03
 2  2  1     2.5525235099e-03
 2  2  2     4.4530940836e-04
 2  2  3    -1.1772523243e-04
 2  3  1     3.6461783317e-03
 2  3  2    -4.0142520161e-05
 2  3  3     1.2456445894e-04
 3  1  1    -4.2503866027e-03
 3  1  2     3.6461783317e-03
 3  1  3    -2.1575197171e-04
 3  2  1     3.6461783317e-03