64   
2    

1    
  0.0300000000000000   0.0000000000000000   0.0000000000000000
  -0.1990646427   -0.0000000000    0.0000000000
  -0.0069769320   -0.0000000000    0.0000000000
   0.0005390046    0.0000000000    0.0000000000
  -0.0001038334    0.0000000000    0.0000000000
   0.0005390046    0.0000000000    0.0000000000
  -0.0001038334    0.0000000000    0.0000000000
   0.0000229259    0.0000000000    0.0000000000
  -0.0000229259    0.0000000000    0.0000000000
   0.0000205445   -0.0000340293   -0.0000340293
  -0.0000665261   -0.0000002772   -0.0000002772
   0.0000205445    0.0000340293   -0.0000340293
  -0.0000665261    0.0000002772   -0.0000002772
   0.0000205445   -0.0000340293    0.0000340293
  -0.0000665261   -0.0000002772    0.0000002772
   0.0000205445    0.0000340293    0.0000340293
  -0.0000665261    0.0000002772    0.0000002772
   0.0064572815   -0.0000000000    0.0066327948
   0.0062263125   -0.0000000000   -0.0062671829
   0.0000049698    0.0000000000   -0.0000336172
   0.0000041669    0.0000000000    0.0000336197
   0.0064572815   -0.0000000000   -0.0066327948
   0.0062263125   -0.0000000000    0.0062671829
   0.0000049698    0.0000000000    0.0000336172
   0.0000041669    0.0000000000   -0.0000336197
   0.0064572815    0.0066327948    0.0000000000
   0.0062263125   -0.0062671829    0.0000000000
   0.0064572815   -0.0066327948   -0.0000000000
   0.0062263125    0.0062671829   -0.0000000000
   0.0000049698   -0.0000336172    0.0000000000
   0.0000041669    0.0000336197    0.0000000000
   0.0000049698    0.0000336172    0.0000000000
   0.0000041669   -0.0000336197    0.0000000000
  -0.0001242883   -0.0001595829   -0.0001595829
  -0.0001227508    0.0001575024    0.0001575024
  -0.0001242883    0.0001595829   -0.0001595829
  -0.0001227508   -0.0001575024    0.0001575024
  -0.0001242883   -0.0001595829    0.0001595829
  -0.0001227508    0.0001575024   -0.0001575024
  -0.0001242883    0.0001595829    0.0001595829
  -0.0001227508   -0.0001575024   -0.0001575024
   0.0695958857   -0.0000000000    0.0000000000
   0.0554323682   -0.0000000000    0.0000000000
   0.0000048395    0.0000000000   -0.0000000000
   0.0000070818    0.0000000000   -0.0000000000
   0.0000048395    0.0000000000    0.0000000000
   0.0000070818   -0.0000000000    0.0000000000
  -0.0000003405    0.0000000000    0.0000000000
   0.0000003405    0.0000000000    0.0000000000
   0.0074622055   -0.0002897422    0.0000000000
   0.0001792276    0.0000009685   -0.0000000000
   0.0074622055    0.0002897422    0.0000000000
   0.0001792276   -0.0000009685   -0.0000000000
  -0.0001272710    0.0000003144    0.0000000000
   0.0001159119    0.0000009886    0.0000000000
  -0.0001272710   -0.0000003144    0.0000000000
   0.0001159119   -0.0000009886    0.0000000000
   0.0074622055   -0.0000000000   -0.0002897422
   0.0001792276   -0.0000000000    0.0000009685
  -0.0001272710    0.0000000000    0.0000003144
   0.0001159119    0.0000000000    0.0000009886
   0.0074622055    0.0000000000    0.0002897422
   0.0001792276   -0.0000000000   -0.0000009685
  -0.0001272710    0.0000000000   -0.0000003144
   0.0001159119    0.0000000000   -0.0000009886

33   
  0.0300000000000000   0.0000000000000000   0.0000000000000000
  -0.0001234630   -0.0001577522   -0.0001577522
  -0.0001235824    0.0001593360    0.0001593360
  -0.0001234630    0.0001577522   -0.0001577522
  -0.0001235824   -0.0001593360    0.0001593360
  -0.0001234630   -0.0001577522    0.0001577522
  -0.0001235824    0.0001593360   -0.0001593360
  -0.0001234630    0.0001577522    0.0001577522
  -0.0001235824   -0.0001593360   -0.0001593360
   0.0554314727    0.0000000000    0.0000000000
   0.0695967761   -0.0000000000   -0.0000000000
   0.0000065132   -0.0000000000   -0.0000000000
   0.0000054120   -0.0000000000   -0.0000000000
   0.0000065132    0.0000000000   -0.0000000000
   0.0000054120   -0.0000000000   -0.0000000000
   0.0000003949   -0.0000000000   -0.0000000000
  -0.0000003949   -0.0000000000   -0.0000000000
   0.0074622056    0.0002893459    0.0000000000
   0.0001792406   -0.0000010570   -0.0000000000
   0.0074622056   -0.0002893459   -0.0000000000
   0.0001792406    0.0000010570   -0.0000000000
  -0.0001272754   -0.0000006338   -0.0000000000
   0.0001159132   -0.0000006780   -0.0000000000
  -0.0001272754    0.0000006338   -0.0000000000
   0.0001159132    0.0000006780   -0.0000000000
   0.0074622056   -0.0000000000    0.0002893459
   0.0001792406   -0.0000000000   -0.0000010570
  -0.0001272754   -0.0000000000   -0.0000006338
   0.0001159132   -0.0000000000   -0.0000006780
   0.0074622056   -0.0000000000   -0.0002893459
   0.0001792406   -0.0000000000    0.0000010570
  -0.0001272754   -0.0000000000    0.0000006338
   0.0001159132   -0.0000000000    0.0000006780
  -0.2940035271   -0.0000000000   -0.0000000000
  -0.0093290377   -0.0000000000   -0.0000000000
   0.0021493150   -0.0000000000   -0.0000000000
  -0.0001126892   -0.0000000000   -0.0000000000
   0.0021493150    0.0000000000   -0.0000000000
  -0.0001126892   -0.0000000000   -0.0000000000
   0.0000312690   -0.0000000000   -0.0000000000
  -0.0000312690   -0.0000000000   -0.0000000000
  -0.0044759397    0.0001317847    0.0001317847
  -0.0000115474   -0.0000005503   -0.0000005503
  -0.0044759397   -0.0001317847    0.0001317847
  -0.0000115474    0.0000005503   -0.0000005503
  -0.0044759397    0.0001317847   -0.0001317847
  -0.0000115474   -0.0000005503    0.0000005503
  -0.0044759397   -0.0001317847   -0.0001317847
  -0.0000115474    0.0000005503    0.0000005503
   0.0200378143    0.0000000000    0.0243948893
   0.0205862040   -0.0000000000   -0.0254699344
   0.0000156540   -0.0000000000   -0.0000159807
   0.0000165796   -0.0000000000    0.0000157140
   0.0200378143    0.0000000000   -0.0243948893
   0.0205862040   -0.0000000000    0.0254699344
   0.0000156540   -0.0000000000    0.0000159807
   0.0000165796   -0.0000000000   -0.0000157140
   0.0200378143    0.0243948893    0.0000000000
   0.0205862040   -0.0254699344    0.0000000000
   0.0200378143   -0.0243948893    0.0000000000
   0.0205862040    0.0254699344   -0.0000000000
   0.0000156540   -0.0000159807   -0.0000000000
   0.0000165796    0.0000157140   -0.0000000000
   0.0000156540    0.0000159807   -0.0000000000
   0.0000165796   -0.0000157140   -0.0000000000
