 1046

    1
0.0000000000e+00 0.0000000000e+00 0.0000000000e+00
0.0000000000e+00 0.0000000000e+00 0.0000000000e+00
     1      1      1
 1  1  1     0.0000000000e+00
 1  1  2     0.0000000000e+00
 1  1  3     0.0000000000e+00
 1  2  1     0.0000000000e+00
 1  2  2     0.0000000000e+00
 1  2  3     0.0000000000e+00
 1  3  1     0.0000000000e+00
 1  3  2     0.0000000000e+00
 1  3  3     0.0000000000e+00
 2  1  1     0.0000000000e+00
 2  1  2     0.0000000000e+00
 2  1  3     0.0000000000e+00
 2  2  1     0.0000000000e+00
 2  2  2     0.0000000000e+00
 2  2  3     0.0000000000e+00
 2  3  1     0.0000000000e+00
 2  3  2     0.0000000000e+00
 2  3  3     0.0000000000e+00
 3  1  1     0.0000000000e+00
 3  1  2     0.0000000000e+00
 3  1  3     0.0000000000e+00
 3  2  1     0.0000000000e+00
 3  2  2     0.0000000000e+00
 3  2  3     0.0000000000e+00
 3  3  1     0.0000000000e+00
 3  3  2     0.0000000000e+00
 3  3  3     0.0000000000e+00

    2
0.0000000000e+00 0.0000000000e+00 0.0000000000e+00
0.0000000000e+00 0.0000000000e+00 0.0000000000e+00
     1      1      2
 1  1  1     7.2996601881e-03
 1  1  2     6.1342527328e-03
 1  1  3     4.3375717049e-03
 1  2  1     6.0221549466e-03
 1  2  2     2.3685003755e-03
 1  2  3     3.6443738057e-03
 1  3  1     4.2583066001e-03
 1  3  2     3.6443738057e-03
 1  3  3    -2.0846105567e-04
 2  1  1     6.0221549466e-03
 2  1  2     2.3685003755e-03
 2  1  3     3.6443738057e-03
 2  2  1     2.5626594366e-03
 2  2  2    -4.4023984275e-04
 2  2  3     1.2941130931e-04
 2  3  1     3.6443738057e-03
 2  3  2     5.0146204507e-05
 2  3  3    -1.2035504661e-04
 3  1  1     4.2583066001e-03
 3  1  2     3.6443738057e-03
 3  1  3    -2.0846105567e-04
 3  2  1     3.6443738057e-03
 3  2  2     5.0146204507e-05
 3  2  3    -1.2035504661e-04
 3  3  1    -1.4301994509e-05
 3  3  2    -8.2572603795e-06
 3  3  3    -4.4654665226e-04

    3
0.0000000000e+00 0.0000000000e+00 0.0000000000e+00
3.9980874304e+00 -3.8090000000e-13 -2.6930000000e-13
     1      1      1
 1  1  1    -1.0438217992e+00
 1  1  2     0.0000000000e+00
 1  1  3     0.0000000000e+00
 1  2  1     0.0000000000e+00
 1  2  2     1.0682209033e-01
 1  2  3    -2.3759339011e-05
 1  3  1     0.0000000000e+00
 1  3  2    -2.3759339011e-05
 1  3  3     1.0683889071e-01
 2  1  1     0.0000000000e+00
 2  1  2     1.0682209033e-01
 2  1  3    -2.3759339011e-05
 2  2  1     1.0717742073e-01
 2  2  2     0.0000000000e+00
 2  2  3     0.0000000000e+00
 2  3  1     6.7718133686e-04
 2  3  2     0.0000000000e+00
 2  3  3     0.0000000000e+00
 3  1  1     0.0000000000e+00
 3  1  2    -2.3759339011e-05
 3  1  3     1.0683889071e-01
 3  2  1     6.7718133686e-04
 3  2  2     0.0000000000e+00
 3  2  3     0.0000000000e+00
 3  3  1     1.0669858122e-01
 3  3  2     0.0000000000e+00
 3  3  3     0.0000000000e+00

    4
0.0000000000e+00 0.0000000000e+00 0.0000000000e+00
-7.9961748609e+00 7.6180000000e-13 5.3860000000e-13
     1      1      2
 1  1  1    -7.2996601873e-03
 1  1  2     6.1342527326e-03
 1  1  3     4.3375717047e-03
 1  2  1     6.0221549463e-03
 1  2  2    -2.3685003755e-03
 1  2  3    -3.6443738057e-03
 1  3  1     4.2583065999e-03
 1  3  2    -3.6443738057e-03
 1  3  3     2.0846105567e-04
 2  1  1     6.0221549463e-03
 2  1  2    -2.3685003755e-03
 2  1  3    -3.6443738057e-03
 2  2  1    -2.5626594366e-03
 2  2  2    -4.4023984273e-04
 2  2  3     1.2941130931e-04
 2  3  1    -3.6443738057e-03
 2  3  2     5.0146204508e-05
 2  3  3    -1.2035504660e-04
 3  1  1     4.2583065999e-03
 3  1  2    -3.6443738057e-03
 3  1  3     2.0846105567e-04
 3  2  1    -3.6443738057e-03
 3  2  2     5.0146204508e-05
 3  2  3    -1.2035504660e-04
 3  3  1     1.4301994501e-05
 3  3  2    -8.2572603640e-06
 3  3  3    -4.4654665226e-04

    5
0.0000000000e+00 0.0000000000e+00 0.0000000000e+00
-3.9980874304e+00 3.8090000000e-13 2.6930000000e-13
     1      1      1
 1  1  1     1.0438217992e+00
 1  1  2     0.0000000000e+00
 1  1  3     0.0000000000e+00
 1  2  1     0.0000000000e+00
 1  2  2    -1.0682209033e-01
 1  2  3     2.3759339011e-05
 1  3  1     0.0000000000e+00
 1  3  2     2.3759339011e-05
 1  3  3    -1.0683889071e-01
 2  1  1     0.0000000000e+00
 2  1  2    -1.0682209033e-01
 2  1  3     2.3759339011e-05
 2  2  1    -1.0717742073e-01
 2  2  2     0.0000000000e+00
 2  2  3     0.0000000000e+00
 2  3  1    -6.7718133686e-04
 2  3  2     0.0000000000e+00
 2  3  3     0.0000000000e+00
 3  1  1     0.0000000000e+00
 3  1  2     2.3759339011e-05
 3  1  3    -1.0683889071e-01
 3  2  1    -6.7718133686e-04
 3  2  2     0.0000000000e+00
 3  2  3     0.0000000000e+00
 3  3  1    -1.0669858122e-01
 3  3  2     0.0000000000e+00
 3  3  3     0.0000000000e+00

    6
0.0000000000e+00 0.0000000000e+00 0.0000000000e+00
-3.9980874304e+00 3.8090000000e-13 2.6930000000e-13
     1      1      2
 1  1  1     0.0000000000e+00
 1  1  2     5.2613710558e-01
 1  1  3     3.7203511519e-01
 1  2  1     5.2718562895e-01
 1  2  2     0.0000000000e+00
 1  2  3     0.0000000000e+00
 1  3  1     3.7277653317e-01
 1  3  2     0.0000000000e+00
 1  3  3     0.0000000000e+00
 2  1  1     5.2718562895e-01
 2  1  2     0.0000000000e+00
 2  1  3     0.0000000000e+00
 2  2  1     0.0000000000e+00
 2  2  2    -8.0226719546e+00
 2  2  3    -6.4184388087e+00
 2  3  1     0.0000000000e+00
 2  3  2    -6.4176973907e+00
 2  3  3    -4.2744045301e+00
 3  1  1     3.7277653317e-01
 3  1  2     0.0000000000e+00
 3  1  3     0.0000000000e+00
 3  2  1     0.0000000000e+00
 3  2  2    -6.4176973907e+00
 3  2  3    -4.2744045301e+00
 3  3  1     0.0000000000e+00
 3  3  2    -4.2754530535e+00
 3  3  3    -2.2776487804e+00

    7
0.0000000000e+00 0.0000000000e+00 0.0000000000e+00
1.9990437153e+00 3.4624452813e+00 9.8600000000e-14
     1      1      1
 1  1  1    -1.0169624393e-02
 1  1  2    -2.0263559396e-01
 1  1  3    -2.0576189705e-05
 1  2  1    -2.0294331911e-01
 1  2  2    -4.5833023008e-01
 1  2  3    -1.1879669505e-05
 1  3  1     2.8294002623e-04
 1  3  2     5.1382583738e-04
 1  3  3     5.3419445359e-02
 2  1  1    -2.0294331911e-01
 2  1  2    -4.5833023008e-01
 2  1  3    -1.1879669505e-05
 2  2  1    -4.5815256487e-01
 2  2  2    -6.0852223215e-01
 2  2  3     2.0576186764e-05
 2  3  1    -1.8711483849e-04
 2  3  2    -2.8294002917e-04
 2  3  3     9.2525193472e-02
 3  1  1     2.8294002623e-04
 3  1  2     5.1382583738e-04
 3  1  3     5.3419445359e-02
 3  2  1    -1.8711483849e-04
 3  2  2    -2.8294002917e-04
 3  2  3     9.2525193472e-02
 3  3  1     5.3349290610e-02
 3  3  2     9.2403681883e-02
 3  3  3     0.0000000000e+00

    8
0.0000000000e+00 0.0000000000e+00 0.0000000000e+00
-3.9980874305e+00 -6.9248905627e+00 -1.9720000000e-13
     1      1      2
 1  1  1     1.7586207245e-14
 1  1  2     1.6955963859e-03
 1  1  3    -1.9746688884e-03
 1  2  1     1.9197919584e-03
 1  2  2    -1.2489816748e-13
 1  2  3     9.6355378327e-14
 1  3  1    -2.0539339932e-03
 1  3  2     9.0390005994e-14
 1  3  3    -5.7100215621e-16
 2  1  1     1.9197919584e-03
 2  1  2    -1.2338548889e-13
 2  1  3     9.5601684692e-14
 2  2  1    -1.2073164470e-13
 2  2  2    -1.3083622166e-02
 2  2  3     6.4416519026e-03
 2  3  1     9.2294063455e-14
 2  3  2     6.3623867978e-03
 2  3  3     2.4071009323e-04
 3  1  1    -2.0539339932e-03
 3  1  2     9.0120019866e-14
 3  1  3    -5.5830271024e-16
 3  2  1     9.3215198118e-14
 3  2  2     6.3623867978e-03
 3  2  3     2.4071009323e-04
 3  3  1    -3.2337762438e-15
 3  3  2     1.6514520767e-05
 3  3  3    -4.4654665225e-04

    9
0.0000000000e+00 0.0000000000e+00 0.0000000000e+00
-1.9990437152e+00 3.4624452813e+00 3.6790000000e-13
     1      1      1
 1  1  1     1.0169624376e-02
 1  1  2    -2.0263559393e-01
 1  1  3    -2.0576191846e-05
 1  2  1    -2.0294331909e-01
 1  2  2     4.5833023006e-01
 1  2  3     1.1879671372e-05
 1  3  1     2.8294002408e-04
 1  3  2    -5.1382583553e-04
 1  3  3    -5.3419445356e-02
 2  1  1    -2.0294331909e-01
 2  1  2     4.5833023006e-01
 2  1  3     1.1879671372e-05
 2  2  1     4.5815256486e-01
 2  2  2    -6.0852223215e-01
 2  2  3     2.0576186753e-05
 2  3  1     1.8711484035e-04
 2  3  2    -2.8294002918e-04
 2  3  3     9.2525193472e-02
 3  1  1     2.8294002408e-04
 3  1  2    -5.1382583553e-04
 3  1  3    -5.3419445356e-02
 3  2  1     1.8711484035e-04
 3  2  2    -2.8294002918e-04
 3  2  3     9.2525193472e-02
 3  3  1    -5.3349290607e-02
 3  3  2     9.2403681883e-02
 3  3  3     0.0000000000e+00

   10
0.0000000000e+00 0.0000000000e+00 0.0000000000e+00
-1.9990437153e+00 -3.4624452813e+00 -9.8600000000e-14
     1      1      1
 1  1  1     1.0169624393e-02
 1  1  2     2.0263559396e-01
 1  1  3     2.0576189705e-05
 1  2  1     2.0294331911e-01
 1  2  2     4.5833023008e-01
 1  2  3     1.1879669505e-05
 1  3  1    -2.8294002623e-04
 1  3  2    -5.1382583738e-04
 1  3  3    -5.3419445359e-02
 2  1  1     2.0294331911e-01
 2  1  2     4.5833023008e-01
 2  1  3     1.1879669505e-05
 2  2  1     4.5815256487e-01
 2  2  2     6.0852223215e-01
 2  2  3    -2.0576186764e-05
 2  3  1     1.8711483849e-04
 2  3  2     2.8294002917e-04
 2  3  3    -9.2525193472e-02
 3  1  1    -2.8294002623e-04
 3  1  2    -5.1382583738e-04
 3  1  3    -5.3419445359e-02
 3  2  1     1.8711483849e-04
 3  2  2     2.8294002917e-04
 3  2  3    -9.2525193472e-02
 3  3  1    -5.3349290610e-02
 3  3  2    -9.2403681883e-02
 3  3  3     0.0000000000e+00

   11
0.0000000000e+00 0.0000000000e+00 0.0000000000e+00
-1.9990437153e+00 -3.4624452813e+00 -9.8600000000e-14
     1      1      2
 1  1  1    -4.8686881905e+00
 1  1  2     3.3381240666e+00
 1  1  3    -4.7208203276e+00
 1  2  1     3.3375998049e+00
 1  2  2    -1.6225933812e+00
 1  2  3     2.9403614610e+00
 1  3  1    -4.7200789096e+00
 1  3  2     2.9403614610e+00
 1  3  3    -3.7017429090e+00
 2  1  1     3.3375998049e+00
 2  1  2    -1.6225933812e+00
 2  1  3     2.9403614610e+00
 2  2  1    -1.6235014290e+00
 2  2  2     4.1014335816e-01
 2  2  3    -1.3255833660e+00
 2  3  1     2.9403614610e+00
 2  3  2    -1.3248419480e+00
 2  3  3     2.1372022652e+00
 3  1  1    -4.7200789096e+00
 3  1  2     2.9403614610e+00
 3  1  3    -3.7017429090e+00
 3  2  1     2.9403614610e+00
 3  2  2    -1.3248419480e+00
 3  2  3     2.1372022652e+00
 3  3  1    -3.7026509569e+00
 3  3  2     2.1377265268e+00
 3  3  3    -2.2776487804e+00

   12
0.0000000000e+00 0.0000000000e+00 0.0000000000e+00
1.9990437152e+00 -3.4624452813e+00 -3.6790000000e-13
     1      1      1
 1  1  1    -1.0169624376e-02
 1  1  2     2.0263559393e-01
 1  1  3     2.0576191846e-05
 1  2  1     2.0294331909e-01
 1  2  2    -4.5833023006e-01
 1  2  3    -1.1879671372e-05
 1  3  1    -2.8294002408e-04
 1  3  2     5.1382583553e-04
 1  3  3     5.3419445356e-02
 2  1  1     2.0294331909e-01
 2  1  2    -4.5833023006e-01
 2  1  3    -1.1879671372e-05
 2  2  1    -4.5815256486e-01
 2  2  2     6.0852223215e-01
 2  2  3    -2.0576186753e-05
 2  3  1    -1.8711484035e-04
 2  3  2     2.8294002918e-04
 2  3  3    -9.2525193472e-02
 3  1  1    -2.8294002408e-04
 3  1  2     5.1382583553e-04
 3  1  3     5.3419445356e-02
 3  2  1    -1.8711484035e-04
 3  2  2     2.8294002918e-04
 3  2  3    -9.2525193472e-02
 3  3  1     5.3349290607e-02
 3  3  2    -9.2403681883e-02
 3  3  3     0.0000000000e+00

   13
0.0000000000e+00 0.0000000000e+00 0.0000000000e+00
-5.9971311457e+00 -3.4624452813e+00 1.7070000000e-13
     1      1      2
 1  1  1     4.8686881909e+00
 1  1  2     3.3381240667e+00
 1  1  3    -4.7208203277e+00
 1  2  1     3.3375998050e+00
 1  2  2     1.6225933811e+00
 1  2  3    -2.9403614609e+00
 1  3  1    -4.7200789097e+00
 1  3  2    -2.9403614609e+00
 1  3  3     3.7017429090e+00
 2  1  1     3.3375998050e+00
 2  1  2     1.6225933811e+00
 2  1  3    -2.9403614609e+00
 2  2  1     1.6235014290e+00
 2  2  2     4.1014335810e-01
 2  2  3    -1.3255833658e+00
 2  3  1    -2.9403614609e+00
 2  3  2    -1.3248419479e+00
 2  3  3     2.1372022650e+00
 3  1  1    -4.7200789097e+00
 3  1  2    -2.9403614609e+00
 3  1  3     3.7017429090e+00
 3  2  1    -2.9403614609e+00
 3  2  2    -1.3248419479e+00
 3  2  3     2.1372022650e+00
 3  3  1     3.7026509568e+00
 3  3  2     2.1377265267e+00
 3  3  3    -2.2776487802e+00

   14
0.0000000000e+00 0.0000000000e+00 0.0000000000e+00
1.9990437153e+00 1.1541484271e+00 3.2644247172e+00
     1      1      1
 1  1  1    -1.0169624389e-02
 1  1  2    -6.7564597398e-02
 1  1  3    -1.9103981139e-01
 1  2  1    -6.7381014619e-02
 1  2  2    -3.2838832224e-03
 1  2  3    -1.6036935296e-01
 1  3  1    -1.9143110953e-01
 1  3  2    -1.6089505847e-01
 1  3  3    -4.0162690148e-01
 2  1  1    -6.7381014619e-02
 2  1  2    -3.2838832224e-03
 2  1  3    -1.6036935296e-01
 2  2  1    -3.6018579236e-03
 2  2  2     5.9613628381e-02
 2  2  3    -5.8612331714e-03
 2  3  1    -1.6089505847e-01
 2  3  2    -5.6454988746e-03
 2  3  3    -2.3187939968e-01
 3  1  1    -1.9143110953e-01
 3  1  2    -1.6089505847e-01
 3  1  3    -4.0162690148e-01
 3  2  1    -1.6089505847e-01
 3  2  2    -5.6454988746e-03
 3  2  3    -2.3187939968e-01
 3  3  1    -4.0120141633e-01
 3  3  2    -2.3163374571e-01
 3  3  3    -4.8074686127e-01

   15
0.0000000000e+00 0.0000000000e+00 0.0000000000e+00
-3.9980874305e+00 -2.3082968542e+00 -6.5288494344e+00
     1      1      2
 1  1  1     2.3901479858e-15
 1  1  2    -1.2965368869e-03
 1  1  3     2.2568465663e-03
 1  2  1    -1.2965368869e-03
 1  2  2     3.8935116520e-14
 1  2  3     3.3019087511e-14
 1  3  1     2.4946418807e-03
 1  3  2     3.9484849019e-14
 1  3  3    -1.6557308202e-13
 2  1  1    -1.2965368869e-03
 2  1  2     3.9351697027e-14
 2  1  3     3.3802841871e-14
 2  2  1     3.7745428600e-14
 2  2  2     1.2965368868e-03
 2  2  3     2.2568465663e-03
 2  3  1     3.9849824386e-14
 2  3  2     2.4946418807e-03
 2  3  3     1.6579901626e-13
 3  1  1     2.4946418807e-03
 3  1  2     3.9830507538e-14
 3  1  3    -1.6602285716e-13
 3  2  1     3.8974229650e-14
 3  2  2     2.4946418807e-03
 3  2  3     1.6727324325e-13
 3  3  1    -1.6682079012e-13
 3  3  2     1.6900543982e-13
 3  3  3    -1.6575002218e-02

   16
0.0000000000e+00 0.0000000000e+00 0.0000000000e+00
-1.9990437152e+00 1.1541484271e+00 3.2644247172e+00
     1      1      1
 1  1  1     1.0169624372e-02
 1  1  2    -6.7564597392e-02
 1  1  3    -1.9103981137e-01
 1  2  1    -6.7381014612e-02
 1  2  2     3.2838832240e-03
 1  2  3     1.6036935296e-01
 1  3  1    -1.9143110950e-01
 1  3  2     1.6089505846e-01
 1  3  3     4.0162690147e-01
 2  1  1    -6.7381014612e-02
 2  1  2     3.2838832240e-03
 2  1  3     1.6036935296e-01
 2  2  1     3.6018579252e-03
 2  2  2     5.9613628380e-02
 2  2  3    -5.8612331714e-03
 2  3  1     1.6089505846e-01
 2  3  2    -5.6454988747e-03
 2  3  3    -2.3187939968e-01
 3  1  1    -1.9143110950e-01
 3  1  2     1.6089505846e-01
 3  1  3     4.0162690147e-01
 3  2  1     1.6089505846e-01
 3  2  2    -5.6454988747e-03
 3  2  3    -2.3187939968e-01
 3  3  1     4.0120141631e-01
 3  3  2    -2.3163374571e-01
 3  3  3    -4.8074686127e-01

   17
0.0000000000e+00 0.0000000000e+00 0.0000000000e+00
9.8680508209e-11 4.6165937084e+00 3.2644247172e+00
     1      1      1
 1  1  1     0.0000000000e+00
 1  1  2    -1.8736852544e-02
 1  1  3    -1.3248955492e-02
 1  2  1    -1.8958043464e-02
 1  2  2     0.0000000000e+00
 1  2  3     0.0000000000e+00
 1  3  1    -1.3405361091e-02
 1  3  2     0.0000000000e+00
 1  3  3     0.0000000000e+00
 2  1  1    -1.8958043464e-02
 2  1  2     0.0000000000e+00
 2  1  3     0.0000000000e+00
 2  2  1     0.0000000000e+00
 2  2  2     7.4090368076e-02
 2  2  3     7.9200523870e-02
 2  3  1     0.0000000000e+00
 2  3  2     7.9044118271e-02
 2  3  3     4.6413610311e-02
 3  1  1    -1.3405361091e-02
 3  1  2     0.0000000000e+00
 3  1  3     0.0000000000e+00
 3  2  1     0.0000000000e+00
 3  2  2     7.9044118271e-02
 3  2  3     4.6413610311e-02
 3  3  1     0.0000000000e+00
 3  3  2     4.6634801230e-02
 3  3  3     6.1650620068e-03

   18
0.0000000000e+00 0.0000000000e+00 0.0000000000e+00
-2.7755575616e-16 -2.3082968543e+00 3.2644247172e+00
     1      1      1
 1  1  1     0.0000000000e+00
 1  1  2    -6.1325996466e-02
 1  1  3     8.6728055926e-02
 1  2  1    -6.1693162024e-02
 1  2  2    -1.7527492542e-12
 1  2  3     6.2714864628e-13
 1  3  1     8.7247306439e-02
 1  3  2     6.1221952944e-13
 1  3  3     1.7527433222e-12
 2  1  1    -6.1693162024e-02
 2  1  2    -1.7527611324e-12
 2  1  3     6.2713837493e-13
 2  2  1    -1.7457130318e-12
 2  2  2     7.7227934516e-02
 2  2  3    -2.8362910050e-01
 2  3  1     6.1719492667e-13
 2  3  2    -2.8432391485e-01
 2  3  3     4.6375879937e-01
 3  1  1     8.7247306439e-02
 3  1  2     6.1223906221e-13
 3  1  3     1.7527551070e-12
 3  2  1     6.1721864967e-13
 3  2  2    -2.8432391485e-01
 3  2  3     4.6375879937e-01
 3  3  1     1.7457248933e-12
 3  3  2     4.6326749143e-01
 3  3  3    -4.8074686126e-01

   19
0.0000000000e+00 0.0000000000e+00 0.0000000000e+00
3.9980874304e+00 -2.3082968543e+00 3.2644247172e+00
     1      1      1
 1  1  1     3.5857384500e-02
 1  1  2    -3.9660314060e-02
 1  1  3     5.6088154028e-02
 1  2  1    -3.9549718600e-02
 1  2  2     1.1888609185e-02
 1  2  3    -4.0031798849e-02
 1  3  1     5.5931748428e-02
 1  3  2    -4.0031798849e-02
 1  3  3     4.0195365609e-02
 2  1  1    -3.9549718600e-02
 2  1  2     1.1888609185e-02
 2  1  3    -4.0031798849e-02
 2  2  1     1.2080166141e-02
 2  2  2     1.1983556292e-02
 2  2  3     9.8634143507e-03
 2  3  1    -4.0031798849e-02
 2  3  2     9.7070087513e-03
 2  3  3    -2.3206805156e-02
 3  1  1     5.5931748428e-02
 3  1  2    -4.0031798849e-02
 3  1  3     4.0195365609e-02
 3  2  1    -4.0031798849e-02
 3  2  2     9.7070087513e-03
 3  2  3    -2.3206805156e-02
 3  3  1     4.0386922565e-02
 3  3  2    -2.3317400616e-02
 3  3  3     6.1650620068e-03

   20
0.0000000000e+00 0.0000000000e+00 0.0000000000e+00
-3.9980874304e+00 -2.3082968543e+00 3.2644247172e+00
     1      1      1
 1  1  1    -3.5857384504e-02
 1  1  2    -3.9660314060e-02
 1  1  3     5.6088154030e-02
 1  2  1    -3.9549718600e-02
 1  2  2    -1.1888609184e-02
 1  2  3     4.0031798848e-02
 1  3  1     5.5931748431e-02
 1  3  2     4.0031798848e-02
 1  3  3    -4.0195365608e-02
 2  1  1    -3.9549718600e-02
 2  1  2    -1.1888609184e-02
 2  1  3     4.0031798848e-02
 2  2  1    -1.2080166139e-02
 2  2  2     1.1983556292e-02
 2  2  3     9.8634143496e-03
 2  3  1     4.0031798848e-02
 2  3  2     9.7070087502e-03
 2  3  3    -2.3206805154e-02
 3  1  1     5.5931748431e-02
 3  1  2     4.0031798848e-02
 3  1  3    -4.0195365608e-02
 3  2  1     4.0031798848e-02
 3  2  2     9.7070087502e-03
 3  2  3    -2.3206805154e-02
 3  3  1    -4.0386922564e-02
 3  3  2    -2.3317400614e-02
 3  3  3     6.1650620050e-03

   21
0.0000000000e+00 0.0000000000e+00 0.0000000000e+00
-3.9980874304e+00 -2.3082968543e+00 3.2644247172e+00
     1      1      2
 1  1  1    -2.3901479858e-15
 1  1  2     1.2965368869e-03
 1  1  3    -2.2568465663e-03
 1  2  1     1.2965368869e-03
 1  2  2    -3.8935116520e-14
 1  2  3    -3.3019087511e-14
 1  3  1    -2.4946418807e-03
 1  3  2    -3.9484849019e-14
 1  3  3     1.6557308202e-13
 2  1  1     1.2965368869e-03
 2  1  2    -3.9351697027e-14
 2  1  3    -3.3802841871e-14
 2  2  1    -3.7745428600e-14
 2  2  2    -1.2965368868e-03
 2  2  3    -2.2568465663e-03
 2  3  1    -3.9849824386e-14
 2  3  2    -2.4946418807e-03
 2  3  3    -1.6579901626e-13
 3  1  1    -2.4946418807e-03
 3  1  2    -3.9830507538e-14
 3  1  3     1.6602285716e-13
 3  2  1    -3.8974229650e-14
 3  2  2    -2.4946418807e-03
 3  2  3    -1.6727324325e-13
 3  3  1     1.6682079012e-13
 3  3  2    -1.6900543982e-13
 3  3  3     1.6575002218e-02

   22
0.0000000000e+00 0.0000000000e+00 0.0000000000e+00
-1.9990437153e+00 -1.1541484271e+00 -3.2644247172e+00
     1      1      1
 1  1  1     1.0169624389e-02
 1  1  2     6.7564597398e-02
 1  1  3     1.9103981139e-01
 1  2  1     6.7381014619e-02
 1  2  2     3.2838832224e-03
 1  2  3     1.6036935296e-01
 1  3  1     1.9143110953e-01
 1  3  2     1.6089505847e-01
 1  3  3     4.0162690148e-01
 2  1  1     6.7381014619e-02
 2  1  2     3.2838832224e-03
 2  1  3     1.6036935296e-01
 2  2  1     3.6018579236e-03
 2  2  2    -5.9613628381e-02
 2  2  3     5.8612331714e-03
 2  3  1     1.6089505847e-01
 2  3  2     5.6454988746e-03
 2  3  3     2.3187939968e-01
 3  1  1     1.9143110953e-01
 3  1  2     1.6089505847e-01
 3  1  3     4.0162690148e-01
 3  2  1     1.6089505847e-01
 3  2  2     5.6454988746e-03
 3  2  3     2.3187939968e-01
 3  3  1     4.0120141633e-01
 3  3  2     2.3163374571e-01
 3  3  3     4.8074686127e-01

   23
0.0000000000e+00 0.0000000000e+00 0.0000000000e+00
-1.9990437153e+00 -1.1541484271e+00 -3.2644247172e+00
     1      1      2
 1  1  1    -4.8686881909e+00
 1  1  2    -3.3381240667e+00
 1  1  3     4.7208203277e+00
 1  2  1    -3.3375998050e+00
 1  2  2    -1.6225933811e+00
 1  2  3     2.9403614609e+00
 1  3  1     4.7200789097e+00
 1  3  2     2.9403614609e+00
 1  3  3    -3.7017429090e+00
 2  1  1    -3.3375998050e+00
 2  1  2    -1.6225933811e+00
 2  1  3     2.9403614609e+00
 2  2  1    -1.6235014290e+00
 2  2  2    -4.1014335810e-01
 2  2  3     1.3255833658e+00
 2  3  1     2.9403614609e+00
 2  3  2     1.3248419479e+00
 2  3  3    -2.1372022650e+00
 3  1  1     4.7200789097e+00
 3  1  2     2.9403614609e+00
 3  1  3    -3.7017429090e+00
 3  2  1     2.9403614609e+00
 3  2  2     1.3248419479e+00
 3  2  3    -2.1372022650e+00
 3  3  1    -3.7026509568e+00
 3  3  2    -2.1377265267e+00
 3  3  3     2.2776487802e+00

   24
0.0000000000e+00 0.0000000000e+00 0.0000000000e+00
1.9990437152e+00 -1.1541484271e+00 -3.2644247172e+00
     1      1      1
 1  1  1    -1.0169624372e-02
 1  1  2     6.7564597392e-02
 1  1  3     1.9103981137e-01
 1  2  1     6.7381014612e-02
 1  2  2    -3.2838832240e-03
 1  2  3    -1.6036935296e-01
 1  3  1     1.9143110950e-01
 1  3  2    -1.6089505846e-01
 1  3  3    -4.0162690147e-01
 2  1  1     6.7381014612e-02
 2  1  2    -3.2838832240e-03
 2  1  3    -1.6036935296e-01
 2  2  1    -3.6018579252e-03
 2  2  2    -5.9613628380e-02
 2  2  3     5.8612331714e-03
 2  3  1    -1.6089505846e-01
 2  3  2     5.6454988747e-03
 2  3  3     2.3187939968e-01
 3  1  1     1.9143110950e-01
 3  1  2    -1.6089505846e-01
 3  1  3    -4.0162690147e-01
 3  2  1    -1.6089505846e-01
 3  2  2     5.6454988747e-03
 3  2  3     2.3187939968e-01
 3  3  1    -4.0120141631e-01
 3  3  2     2.3163374571e-01
 3  3  3     4.8074686127e-01

   25
0.0000000000e+00 0.0000000000e+00 0.0000000000e+00
-5.9971311457e+00 -1.1541484271e+00 -3.2644247172e+00
     1      1      2
 1  1  1     4.8686881905e+00
 1  1  2    -3.3381240666e+00
 1  1  3     4.7208203276e+00
 1  2  1    -3.3375998049e+00
 1  2  2     1.6225933812e+00
 1  2  3    -2.9403614610e+00
 1  3  1     4.7200789096e+00
 1  3  2    -2.9403614610e+00
 1  3  3     3.7017429090e+00
 2  1  1    -3.3375998049e+00
 2  1  2     1.6225933812e+00
 2  1  3    -2.9403614610e+00
 2  2  1     1.6235014290e+00
 2  2  2    -4.1014335816e-01
 2  2  3     1.3255833660e+00
 2  3  1    -2.9403614610e+00
 2  3  2     1.3248419480e+00
 2  3  3    -2.1372022652e+00
 3  1  1     4.7200789096e+00
 3  1  2    -2.9403614610e+00
 3  1  3     3.7017429090e+00
 3  2  1    -2.9403614610e+00
 3  2  2     1.3248419480e+00
 3  2  3    -2.1372022652e+00
 3  3  1     3.7026509569e+00
 3  3  2    -2.1377265268e+00
 3  3  3     2.2776487804e+00

   26
0.0000000000e+00 0.0000000000e+00 0.0000000000e+00
-2.7755575616e-16 2.3082968543e+00 -3.2644247172e+00
     1      1      1
 1  1  1     0.0000000000e+00
 1  1  2     6.1325996466e-02
 1  1  3    -8.6728055926e-02
 1  2  1     6.1693162024e-02
 1  2  2     1.7527492542e-12
 1  2  3    -6.2714864628e-13
 1  3  1    -8.7247306439e-02
 1  3  2    -6.1221952944e-13
 1  3  3    -1.7527433222e-12
 2  1  1     6.1693162024e-02
 2  1  2     1.7527611324e-12
 2  1  3    -6.2713837493e-13
 2  2  1     1.7457130318e-12
 2  2  2    -7.7227934516e-02
 2  2  3     2.8362910050e-01
 2  3  1    -6.1719492667e-13
 2  3  2     2.8432391485e-01
 2  3  3    -4.6375879937e-01
 3  1  1    -8.7247306439e-02
 3  1  2    -6.1223906221e-13
 3  1  3    -1.7527551070e-12
 3  2  1    -6.1721864967e-13
 3  2  2     2.8432391485e-01
 3  2  3    -4.6375879937e-01
 3  3  1    -1.7457248933e-12
 3  3  2    -4.6326749143e-01
 3  3  3     4.8074686126e-01

   27
0.0000000000e+00 0.0000000000e+00 0.0000000000e+00
3.9980874304e+00 2.3082968543e+00 -3.2644247172e+00
     1      1      1
 1  1  1     3.5857384504e-02
 1  1  2     3.9660314060e-02
 1  1  3    -5.6088154030e-02
 1  2  1     3.9549718600e-02
 1  2  2     1.1888609184e-02
 1  2  3    -4.0031798848e-02
 1  3  1    -5.5931748431e-02
 1  3  2    -4.0031798848e-02
 1  3  3     4.0195365608e-02
 2  1  1     3.9549718600e-02
 2  1  2     1.1888609184e-02
 2  1  3    -4.0031798848e-02
 2  2  1     1.2080166139e-02
 2  2  2    -1.1983556292e-02
 2  2  3    -9.8634143496e-03
 2  3  1    -4.0031798848e-02
 2  3  2    -9.7070087502e-03
 2  3  3     2.3206805154e-02
 3  1  1    -5.5931748431e-02
 3  1  2    -4.0031798848e-02
 3  1  3     4.0195365608e-02
 3  2  1    -4.0031798848e-02
 3  2  2    -9.7070087502e-03
 3  2  3     2.3206805154e-02
 3  3  1     4.0386922564e-02
 3  3  2     2.3317400614e-02
 3  3  3    -6.1650620050e-03

   28
0.0000000000e+00 0.0000000000e+00 0.0000000000e+00
-3.9980874304e+00 2.3082968543e+00 -3.2644247172e+00
     1      1      1
 1  1  1    -3.5857384500e-02
 1  1  2     3.9660314060e-02
 1  1  3    -5.6088154028e-02
 1  2  1     3.9549718600e-02
 1  2  2    -1.1888609185e-02
 1  2  3     4.0031798849e-02
 1  3  1    -5.5931748428e-02
 1  3  2     4.0031798849e-02
 1  3  3    -4.0195365609e-02
 2  1  1     3.9549718600e-02
 2  1  2    -1.1888609185e-02
 2  1  3     4.0031798849e-02
 2  2  1    -1.2080166141e-02
 2  2  2    -1.1983556292e-02
 2  2  3    -9.8634143507e-03
 2  3  1     4.0031798849e-02
 2  3  2    -9.7070087513e-03
 2  3  3     2.3206805156e-02
 3  1  1    -5.5931748428e-02
 3  1  2     4.0031798849e-02
 3  1  3    -4.0195365609e-02
 3  2  1     4.0031798849e-02
 3  2  2    -9.7070087513e-03
 3  2  3     2.3206805156e-02
 3  3  1    -4.0386922565e-02
 3  3  2     2.3317400616e-02
 3  3  3    -6.1650620068e-03

   29
0.0000000000e+00 0.0000000000e+00 0.0000000000e+00
-3.9980874304e+00 2.3082968543e+00 -3.2644247172e+00
     1      1      2
 1  1  1    -1.7586207245e-14
 1  1  2    -1.6955963859e-03
 1  1  3     1.9746688884e-03
 1  2  1    -1.9197919584e-03
 1  2  2     1.2489816748e-13
 1  2  3    -9.6355378327e-14
 1  3  1     2.0539339932e-03
 1  3  2    -9.0390005994e-14
 1  3  3     5.7100215621e-16
 2  1  1    -1.9197919584e-03
 2  1  2     1.2338548889e-13
 2  1  3    -9.5601684692e-14
 2  2  1     1.2073164470e-13
 2  2  2     1.3083622166e-02
 2  2  3    -6.4416519026e-03
 2  3  1    -9.2294063455e-14
 2  3  2    -6.3623867978e-03
 2  3  3    -2.4071009323e-04
 3  1  1     2.0539339932e-03
 3  1  2    -9.0120019866e-14
 3  1  3     5.5830271024e-16
 3  2  1    -9.3215198118e-14
 3  2  2    -6.3623867978e-03
 3  2  3    -2.4071009323e-04
 3  3  1     3.2337762438e-15
 3  3  2    -1.6514520767e-05
 3  3  3     4.4654665225e-04

   30
0.0000000000e+00 0.0000000000e+00 0.0000000000e+00
-3.9980874305e+00 -4.6165937084e+00 -3.2644247172e+00
     1      1      2
 1  1  1     0.0000000000e+00
 1  1  2    -5.2613710558e-01
 1  1  3    -3.7203511519e-01
 1  2  1    -5.2718562895e-01
 1  2  2     0.0000000000e+00
 1  2  3     0.0000000000e+00
 1  3  1    -3.7277653317e-01
 1  3  2     0.0000000000e+00
 1  3  3     0.0000000000e+00
 2  1  1    -5.2718562895e-01
 2  1  2     0.0000000000e+00
 2  1  3     0.0000000000e+00
 2  2  1     0.0000000000e+00
 2  2  2     8.0226719546e+00
 2  2  3     6.4184388087e+00
 2  3  1     0.0000000000e+00
 2  3  2     6.4176973907e+00
 2  3  3     4.2744045301e+00
 3  1  1    -3.7277653317e-01
 3  1  2     0.0000000000e+00
 3  1  3     0.0000000000e+00
 3  2  1     0.0000000000e+00
 3  2  2     6.4176973907e+00
 3  2  3     4.2744045301e+00
 3  3  1     0.0000000000e+00
 3  3  2     4.2754530535e+00
 3  3  3     2.2776487804e+00

   31
0.0000000000e+00 0.0000000000e+00 0.0000000000e+00
-9.8681618432e-11 -4.6165937084e+00 -3.2644247172e+00
     1      1      1
 1  1  1     0.0000000000e+00
 1  1  2     1.8736852544e-02
 1  1  3     1.3248955492e-02
 1  2  1     1.8958043464e-02
 1  2  2     0.0000000000e+00
 1  2  3     0.0000000000e+00
 1  3  1     1.3405361091e-02
 1  3  2     0.0000000000e+00
 1  3  3     0.0000000000e+00
 2  1  1     1.8958043464e-02
 2  1  2     0.0000000000e+00
 2  1  3     0.0000000000e+00
 2  2  1     0.0000000000e+00
 2  2  2    -7.4090368076e-02
 2  2  3    -7.9200523870e-02
 2  3  1     0.0000000000e+00
 2  3  2    -7.9044118271e-02
 2  3  3    -4.6413610311e-02
 3  1  1     1.3405361091e-02
 3  1  2     0.0000000000e+00
 3  1  3     0.0000000000e+00
 3  2  1     0.0000000000e+00
 3  2  2    -7.9044118271e-02
 3  2  3    -4.6413610311e-02
 3  3  1     0.0000000000e+00
 3  3  2    -4.6634801230e-02
 3  3  3    -6.1650620068e-03

   32
0.0000000000e+00 0.0000000000e+00 0.0000000000e+00
-9.8679953098e-11 -4.6165937084e+00 -3.2644247172e+00
     1      1      2
 1  1  1     7.2996601873e-03
 1  1  2    -6.1342527326e-03
 1  1  3    -4.3375717047e-03
 1  2  1    -6.0221549463e-03
 1  2  2     2.3685003755e-03
 1  2  3     3.6443738057e-03
 1  3  1    -4.2583065999e-03
 1  3  2     3.6443738057e-03
 1  3  3    -2.0846105567e-04
 2  1  1    -6.0221549463e-03
 2  1  2     2.3685003755e-03
 2  1  3     3.6443738057e-03
 2  2  1     2.5626594366e-03
 2  2  2     4.4023984273e-04
 2  2  3    -1.2941130931e-04
 2  3  1     3.6443738057e-03
 2  3  2    -5.0146204508e-05
 2  3  3     1.2035504660e-04
 3  1  1    -4.2583065999e-03
 3  1  2     3.6443738057e-03
 3  1  3    -2.0846105567e-04
 3  2  1     3.6443738057e-03