mesh: [     8,     8,     8 ]
nqpoint: 60     
reciprocal_lattice:
- [  -0.17686126,   0.17686126,   0.17686126 ] # a*
- [   0.17686126,  -0.17686126,   0.17686126 ] # b*
- [   0.17686126,   0.17686126,  -0.17686126 ] # c*
natom:   2      
lattice:
- [     0.000000000000000,     2.827074733835000,     2.827074733835000 ] # a
- [     2.827074733835000,     0.000000000000000,     2.827074733835000 ] # b
- [     2.827074733835000,     2.827074733835000,     0.000000000000000 ] # c
points:
- symbol: Na # 1
  coordinates: [  0.000000000000000,  0.000000000000000,  0.000000000000000 ]
  mass: 22.989769
- symbol: Cl # 2
  coordinates: [  0.500000000000000,  0.500000000000000,  0.500000000000000 ]
  mass: 35.453000

phonon:
- q-position: [    0.0625000,    0.0625000,    0.0625000 ]
  distance_from_gamma:  0.019145793
  weight: 2    
  band:
  - # 1
    frequency:     1.0524316721
  - # 2
    frequency:     1.0524316721
  - # 3
    frequency:     1.7411622954
  - # 4
    frequency:     9.4482772898
  - # 5
    frequency:     9.4482772898
  - # 6
    frequency:    10.8882990197

- q-position: [    0.1875000,    0.0625000,    0.0625000 ]
  distance_from_gamma:  0.048182523
  weight: 6    
  band:
  - # 1
    frequency:     2.5285958226
  - # 2
    frequency:     2.6750239519
  - # 3
    frequency:     4.2555646977
  - # 4
    frequency:     9.0081688559
  - # 5
    frequency:     9.5371017864
  - # 6
    frequency:    10.6510216978

- q-position: [    0.3125000,    0.0625000,    0.0625000 ]
  distance_from_gamma:  0.084906070
  weight: 6    
  band:
  - # 1
    frequency:     4.3049652447
  - # 2
    frequency:     4.5318165659
  - # 3
    frequency:     6.9127158269
  - # 4
    frequency:     8.4496902437
  - # 5
    frequency:     9.1049141921
  - # 6
    frequency:    10.6204595851

- q-position: [    0.4375000,    0.0625000,    0.0625000 ]
  distance_from_gamma:  0.122592891
  weight: 6    
  band:
  - # 1
    frequency:     5.8147184552
  - # 2
    frequency:     6.1038257899
  - # 3
    frequency:     7.8913053983
  - # 4
    frequency:     8.4303063224
  - # 5
    frequency:     8.7658673715
  - # 6
    frequency:    10.6320661612

- q-position: [   -0.4375000,    0.0625000,    0.0625000 ]
  distance_from_gamma:  0.147890149
  weight: 6    
  band:
  - # 1
    frequency:     6.4741149994
  - # 2
    frequency:     6.6688246791
  - # 3
    frequency:     7.7179235707
  - # 4
    frequency:     7.9008595486
  - # 5
    frequency:     9.3286993920
  - # 6
    frequency:    10.5870551960

- q-position: [   -0.3125000,    0.0625000,    0.0625000 ]
  distance_from_gamma:  0.109984207
  weight: 6    
  band:
  - # 1
    frequency:     5.3025665907
  - # 2
    frequency:     5.6476529313
  - # 3
    frequency:     8.1020114466
  - # 4
    frequency:     8.2818936585
  - # 5
    frequency:     8.6626694446
  - # 6
    frequency:    10.6425800670

- q-position: [   -0.1875000,    0.0625000,    0.0625000 ]
  distance_from_gamma:  0.072484803
  weight: 6    
  band:
  - # 1
    frequency:     3.7014568188
  - # 2
    frequency:     3.9092477299
  - # 3
    frequency:     6.1284650495
  - # 4
    frequency:     8.7095677842
  - # 5
    frequency:     9.2125578733
  - # 6
    frequency:    10.6163465009

- q-position: [   -0.0625000,    0.0625000,    0.0625000 ]
  distance_from_gamma:  0.036661402
  weight: 6    
  band:
  - # 1
    frequency:     1.9234559464
  - # 2
    frequency:     1.9758265066
  - # 3
    frequency:     3.3474424385
  - # 4
    frequency:     9.3690203823
  - # 5
    frequency:     9.5147752584
  - # 6
    frequency:    10.6105014933

- q-position: [    0.1875000,    0.1875000,    0.0625000 ]
  distance_from_gamma:  0.057437379
  weight: 6    
  band:
  - # 1
    frequency:     2.8986476233
  - # 2
    frequency:     2.9649239430
  - # 3
    frequency:     5.1930960123
  - # 4
    frequency:     9.2685645582
  - # 5
    frequency:     9.6325313891
  - # 6
    frequency:    10.1426886996

- q-position: [    0.3125000,    0.1875000,    0.0625000 ]
  distance_from_gamma:  0.084906070
  weight: 12   
  band:
  - # 1
    frequency:     4.1428085137
  - # 2
    frequency:     4.3552852861
  - # 3
    frequency:     7.1797985290
  - # 4
    frequency:     8.4903250518
  - # 5
    frequency:     9.7370516912
  - # 6
    frequency:    10.1690941504

- q-position: [    0.4375000,    0.1875000,    0.0625000 ]
  distance_from_gamma:  0.118539107
  weight: 12   
  band:
  - # 1
    frequency:     5.4269954505
  - # 2
    frequency:     6.0420213661
  - # 3
    frequency:     7.8938064146
  - # 4
    frequency:     8.8100875882
  - # 5
    frequency:     9.2394424681
  - # 6
    frequency:    10.4637128818

- q-position: [    0.5625000,    0.1875000,    0.0625000 ]
  distance_from_gamma:  0.154358318
  weight: 12   
  band:
  - # 1
    frequency:     6.4478639977
  - # 2
    frequency:     6.9139710555
  - # 3
    frequency:     7.8923228696
  - # 4
    frequency:     8.3337638027
  - # 5
    frequency:     9.6090000441
  - # 6
    frequency:    10.5462302640

- q-position: [   -0.3125000,    0.1875000,    0.0625000 ]
  distance_from_gamma:  0.130322719
  weight: 12   
  band:
  - # 1
    frequency:     6.0252508525
  - # 2
    frequency:     6.5403955684
  - # 3
    frequency:     7.7220773301
  - # 4
    frequency:     8.8026582177
  - # 5
    frequency:     9.1980287164
  - # 6
    frequency:    10.5136960692

- q-position: [   -0.1875000,    0.1875000,    0.0625000 ]
  distance_from_gamma:  0.095728965
  weight: 12   
  band:
  - # 1
    frequency:     4.7448660093
  - # 2
    frequency:     5.0934909024
  - # 3
    frequency:     7.5910714381
  - # 4
    frequency:     8.1249387645
  - # 5
    frequency:     9.7205139636
  - # 6
    frequency:    10.2223589592

- q-position: [   -0.0625000,    0.1875000,    0.0625000 ]
  distance_from_gamma:  0.065395333
  weight: 12   
  band:
  - # 1
    frequency:     3.3422127896
  - # 2
    frequency:     3.5349717552
  - # 3
    frequency:     5.6599443071
  - # 4
    frequency:     8.7659000637
  - # 5
    frequency:     9.6344908604
  - # 6
    frequency:    10.3813681288

- q-position: [    0.3125000,    0.3125000,    0.0625000 ]
  distance_from_gamma:  0.100705173
  weight: 6    
  band:
  - # 1
    frequency:     4.5426880714
  - # 2
    frequency:     4.6239597550
  - # 3
    frequency:     8.3381740402
  - # 4
    frequency:     8.6281117725
  - # 5
    frequency:     9.9204660717
  - # 6
    frequency:    10.0436719482

- q-position: [    0.4375000,    0.3125000,    0.0625000 ]
  distance_from_gamma:  0.126516853
  weight: 12   
  band:
  - # 1
    frequency:     5.3787884893
  - # 2
    frequency:     5.6142376830
  - # 3
    frequency:     8.1083142993
  - # 4
    frequency:     9.6711296418
  - # 5
    frequency:     9.9774932248
  - # 6
    frequency:    10.2527222834

- q-position: [    0.5625000,    0.3125000,    0.0625000 ]
  distance_from_gamma:  0.157492817
  weight: 12   
  band:
  - # 1
    frequency:     6.1578992755
  - # 2
    frequency:     7.0365482875
  - # 3
    frequency:     7.7973156662
  - # 4
    frequency:     9.1988820259
  - # 5
    frequency:    10.1594657761
  - # 6
    frequency:    10.6966110756

- q-position: [   -0.3125000,    0.3125000,    0.0625000 ]
  distance_from_gamma:  0.157492817
  weight: 12   
  band:
  - # 1
    frequency:     6.7300195577
  - # 2
    frequency:     7.0554381350
  - # 3
    frequency:     8.2250873795
  - # 4
    frequency:     8.3953784109
  - # 5
    frequency:     9.8875034233
  - # 6
    frequency:    10.6992128504

- q-position: [   -0.1875000,    0.3125000,    0.0625000 ]
  distance_from_gamma:  0.126516853
  weight: 12   
  band:
  - # 1
    frequency:     6.0076109726
  - # 2
    frequency:     6.4335567564
  - # 3
    frequency:     7.7311929551
  - # 4
    frequency:     8.8172723951
  - # 5
    frequency:     9.4770648514
  - # 6
    frequency:    10.3981803396

- q-position: [   -0.0625000,    0.3125000,    0.0625000 ]
  distance_from_gamma:  0.100705173
  weight: 12   
  band:
  - # 1
    frequency:     4.8989802434
  - # 2
    frequency:     5.3139988094
  - # 3
    frequency:     7.8548516519
  - # 4
    frequency:     8.1354712158
  - # 5
    frequency:     9.1571307848
  - # 6
    frequency:    10.5280540821

- q-position: [    0.4375000,    0.4375000,    0.0625000 ]
  distance_from_gamma:  0.144547568
  weight: 6    
  band:
  - # 1
    frequency:     5.5121127525
  - # 2
    frequency:     5.6005360573
  - # 3
    frequency:     8.3214285528
  - # 4
    frequency:    10.1289099293
  - # 5
    frequency:    10.1868568128
  - # 6
    frequency:    10.8011842294

- q-position: [    0.5625000,    0.4375000,    0.0625000 ]
  distance_from_gamma:  0.169451986
  weight: 12   
  band:
  - # 1
    frequency:     5.9369782968
  - # 2
    frequency:     6.1886064751
  - # 3
    frequency:     8.2817610547
  - # 4
    frequency:     9.8606887791
  - # 5
    frequency:    10.3006406604
  - # 6
    frequency:    11.1951813113

- q-position: [   -0.3125000,   -0.5625000,    0.0625000 ]
  distance_from_gamma:  0.177894538
  weight: 12   
  band:
  - # 1
    frequency:     6.3138967868
  - # 2
    frequency:     7.2719201659
  - # 3
    frequency:     7.8290727801
  - # 4
    frequency:     9.1783878927
  - # 5
    frequency:    10.2236389828
  - # 6
    frequency:    10.9856367399

- q-position: [   -0.1875000,    0.4375000,    0.0625000 ]
  distance_from_gamma:  0.160566137
  weight: 12   
  band:
  - # 1
    frequency:     6.6277355807
  - # 2
    frequency:     7.0002133528
  - # 3
    frequency:     8.2066299798
  - # 4
    frequency:     8.2804434101
  - # 5
    frequency:     9.8272686099
  - # 6
    frequency:    10.6036314237

- q-position: [   -0.0625000,    0.4375000,    0.0625000 ]
  distance_from_gamma:  0.137619058
  weight: 12   
  band:
  - # 1
    frequency:     6.1854034731
  - # 2
    frequency:     6.6489824550
  - # 3
    frequency:     7.7083467430
  - # 4
    frequency:     8.3773155316
  - # 5
    frequency:     9.2272264258
  - # 6
    frequency:    10.5771040359

- q-position: [   -0.4375000,   -0.4375000,    0.0625000 ]
  distance_from_gamma:  0.166542723
  weight: 6    
  band:
  - # 1
    frequency:     5.7087389439
  - # 2
    frequency:     5.7987476362
  - # 3
    frequency:     8.4339887825
  - # 4
    frequency:    10.1732290328
  - # 5
    frequency:    10.2303236809
  - # 6
    frequency:    11.2732192528

- q-position: [   -0.3125000,   -0.4375000,    0.0625000 ]
  distance_from_gamma:  0.147890149
  weight: 12   
  band:
  - # 1
    frequency:     5.7493754259
  - # 2
    frequency:     5.9949864900
  - # 3
    frequency:     8.1808173108
  - # 4
    frequency:     9.8436859016
  - # 5
    frequency:    10.2532772116
  - # 6
    frequency:    10.7625949644

- q-position: [   -0.1875000,   -0.4375000,    0.0625000 ]
  distance_from_gamma:  0.137619058
  weight: 12   
  band:
  - # 1
    frequency:     5.8559640446
  - # 2
    frequency:     6.6192407520
  - # 3
    frequency:     7.7899341210
  - # 4
    frequency:     9.1949576530
  - # 5
    frequency:     9.7346665789
  - # 6
    frequency:    10.4730230815

- q-position: [   -0.3125000,   -0.3125000,    0.0625000 ]
  distance_from_gamma:  0.122592891
  weight: 6    
  band:
  - # 1
    frequency:     5.1211734880
  - # 2
    frequency:     5.2065805122
  - # 3
    frequency:     8.2442716159
  - # 4
    frequency:     9.8377907545
  - # 5
    frequency:    10.0424607576
  - # 6
    frequency:    10.1600843973

- q-position: [   -0.1875000,   -0.3125000,    0.0625000 ]
  distance_from_gamma:  0.105446806
  weight: 12   
  band:
  - # 1
    frequency:     4.8361408554
  - # 2
    frequency:     5.0607149260
  - # 3
    frequency:     8.2049686945
  - # 4
    frequency:     8.6086855915
  - # 5
    frequency:     9.8203863558
  - # 6
    frequency:    10.1568772385

- q-position: [   -0.1875000,   -0.1875000,    0.0625000 ]
  distance_from_gamma:  0.078940127
  weight: 6    
  band:
  - # 1
    frequency:     3.7918684615
  - # 2
    frequency:     3.8672126106
  - # 3
    frequency:     6.9635984649
  - # 4
    frequency:     8.8541894839
  - # 5
    frequency:     9.7766222226
  - # 6
    frequency:     9.9804457476

- q-position: [    0.1875000,    0.1875000,    0.1875000 ]
  distance_from_gamma:  0.057437379
  weight: 2    
  band:
  - # 1
    frequency:     3.0781962701
  - # 2
    frequency:     3.0781962701
  - # 3
    frequency:     4.9853244375
  - # 4
    frequency:     9.0834592784
  - # 5
    frequency:     9.0834592784
  - # 6
    frequency:    10.7589164147

- q-position: [    0.3125000,    0.1875000,    0.1875000 ]
  distance_from_gamma:  0.078940127
  weight: 6    
  band:
  - # 1
    frequency:     4.0273320205
  - # 2
    frequency:     4.3273427184
  - # 3
    frequency:     6.5090819578
  - # 4
    frequency:     8.3880220131
  - # 5
    frequency:     9.7026936986
  - # 6
    frequency:    10.3203511331

- q-position: [    0.4375000,    0.1875000,    0.1875000 ]
  distance_from_gamma:  0.109984207
  weight: 6    
  band:
  - # 1
    frequency:     5.4068313021
  - # 2
    frequency:     5.8506740144
  - # 3
    frequency:     7.8660403799
  - # 4
    frequency:     8.1776907603
  - # 5
    frequency:     9.5971658592
  - # 6
    frequency:    10.2822414057

- q-position: [    0.5625000,    0.1875000,    0.1875000 ]
  distance_from_gamma:  0.144547568
  weight: 6    
  band:
  - # 1
    frequency:     6.5831459583
  - # 2
    frequency:     6.7002594972
  - # 3
    frequency:     7.8920210779
  - # 4
    frequency:     8.5439847092
  - # 5
    frequency:     9.4544343627
  - # 6
    frequency:    10.5579305639

- q-position: [   -0.3125000,    0.1875000,    0.1875000 ]
  distance_from_gamma:  0.144547568
  weight: 6    
  band:
  - # 1
    frequency:     6.0645355718
  - # 2
    frequency:     6.9678064729
  - # 3
    frequency:     7.6989545180
  - # 4
    frequency:     8.8149307889
  - # 5
    frequency:     9.6323406525
  - # 6
    frequency:    10.5297143220

- q-position: [   -0.1875000,    0.1875000,    0.1875000 ]
  distance_from_gamma:  0.109984207
  weight: 6    
  band:
  - # 1
    frequency:     4.9813698512
  - # 2
    frequency:     5.4911208543
  - # 3
    frequency:     8.0988925235
  - # 4
    frequency:     8.6827213345
  - # 5
    frequency:     9.5009242236
  - # 6
    frequency:    10.3613784980

- q-position: [    0.3125000,    0.3125000,    0.1875000 ]
  distance_from_gamma:  0.090479488
  weight: 6    
  band:
  - # 1
    frequency:     4.3710687185
  - # 2
    frequency:     4.7583153144
  - # 3
    frequency:     7.4222798242
  - # 4
    frequency:     8.3722841473
  - # 5
    frequency:     9.3622556536
  - # 6
    frequency:    10.4400039157

- q-position: [    0.4375000,    0.3125000,    0.1875000 ]
  distance_from_gamma:  0.114341694
  weight: 12   
  band:
  - # 1
    frequency:     5.3822708683
  - # 2
    frequency:     5.7372887219
  - # 3
    frequency:     7.9336850738
  - # 4
    frequency:     8.6981504998
  - # 5
    frequency:     9.6770993380
  - # 6
    frequency:    10.2617733623

- q-position: [    0.5625000,    0.3125000,    0.1875000 ]
  distance_from_gamma:  0.144547568
  weight: 12   
  band:
  - # 1
    frequency:     6.4806094971
  - # 2
    frequency:     6.8307998208
  - # 3
    frequency:     7.7168317529
  - # 4
    frequency:     8.9034419104
  - # 5
    frequency:     9.9034407648
  - # 6
    frequency:    10.5220079621

- q-position: [   -0.3125000,    0.3125000,    0.1875000 ]
  distance_from_gamma:  0.166542723
  weight: 12   
  band:
  - # 1
    frequency:     6.6511505576
  - # 2
    frequency:     7.2109128206
  - # 3
    frequency:     7.8902962117
  - # 4
    frequency:     8.5540582243
  - # 5
    frequency:    10.2139243853
  - # 6
    frequency:    10.6361523761

- q-position: [   -0.1875000,    0.3125000,    0.1875000 ]
  distance_from_gamma:  0.134020551
  weight: 12   
  band:
  - # 1
    frequency:     5.8854615440
  - # 2
    frequency:     6.2450928421
  - # 3
    frequency:     7.8648031721
  - # 4
    frequency:     9.3397110615
  - # 5
    frequency:     9.9458975927
  - # 6
    frequency:    10.3647185301

- q-position: [    0.4375000,    0.4375000,    0.1875000 ]
  distance_from_gamma:  0.130322719
  weight: 6    
  band:
  - # 1
    frequency:     5.4734923120
  - # 2
    frequency:     6.0627521540
  - # 3
    frequency:     7.9956795855
  - # 4
    frequency:     9.6081570304
  - # 5
    frequency:     9.7177150797
  - # 6
    frequency:    10.3921659731

- q-position: [    0.5625000,    0.4375000,    0.1875000 ]
  distance_from_gamma:  0.154358318
  weight: 12   
  band:
  - # 1
    frequency:     6.2317017752
  - # 2
    frequency:     6.6105786564
  - # 3
    frequency:     7.9111329864
  - # 4
    frequency:     9.3273357552
  - # 5
    frequency:    10.3892380725
  - # 6
    frequency:    10.6739369135

- q-position: [    0.6875000,    0.4375000,    0.1875000 ]
  distance_from_gamma:  0.183307012
  weight: 12   
  band:
  - # 1
    frequency:     6.9767228647
  - # 2
    frequency:     7.4475260353
  - # 3
    frequency:     7.6638541915
  - # 4
    frequency:     8.5099063229
  - # 5
    frequency:    10.6438719815
  - # 6
    frequency:    10.8586072497

- q-position: [   -0.1875000,    0.4375000,    0.1875000 ]
  distance_from_gamma:  0.163581727
  weight: 12   
  band:
  - # 1
    frequency:     6.8043732259
  - # 2
    frequency:     7.1542214146
  - # 3
    frequency:     7.7354005957
  - # 4
    frequency:     8.6825027447
  - # 5
    frequency:    10.4754697207
  - # 6
    frequency:    10.6352329926

- q-position: [    0.5625000,    0.5625000,    0.1875000 ]
  distance_from_gamma:  0.172312137
  weight: 6    
  band:
  - # 1
    frequency:     5.9895161049
  - # 2
    frequency:     6.6608428459
  - # 3
    frequency:     8.1278811368
  - # 4
    frequency:     9.7095869835
  - # 5
    frequency:    10.1841399494
  - # 6
    frequency:    11.1223505045

- q-position: [   -0.3125000,   -0.4375000,    0.1875000 ]
  distance_from_gamma:  0.175125583
  weight: 12   
  band:
  - # 1
    frequency:     6.4086386789
  - # 2
    frequency:     6.8058357488
  - # 3
    frequency:     7.9836227068
  - # 4
    frequency:     9.2655858209
  - # 5
    frequency:    10.4503321161
  - # 6
    frequency:    11.0494508291

- q-position: [   -0.3125000,   -0.3125000,    0.1875000 ]
  distance_from_gamma:  0.151158835
  weight: 6    
  band:
  - # 1
    frequency:     5.8151409064
  - # 2
    frequency:     6.4580029708
  - # 3
    frequency:     8.0462532372
  - # 4
    frequency:     9.6770195793
  - # 5
    frequency:    10.1465065861
  - # 6
    frequency:    10.7496650979

- q-position: [    0.3125000,    0.3125000,    0.3125000 ]
  distance_from_gamma:  0.095728965
  weight: 2    
  band:
  - # 1
    frequency:     4.8837456105
  - # 2
    frequency:     4.8837456105
  - # 3
    frequency:     7.5529803867
  - # 4
    frequency:     8.5517954605
  - # 5
    frequency:     8.5517954605
  - # 6
    frequency:    10.6962091140

- q-position: [    0.4375000,    0.3125000,    0.3125000 ]
  distance_from_gamma:  0.114341694
  weight: 6    
  band:
  - # 1
    frequency:     5.5148151984
  - # 2
    frequency:     5.9431383137
  - # 3
    frequency:     7.8768216874
  - # 4
    frequency:     8.4043346842
  - # 5
    frequency:     9.0624484062
  - # 6
    frequency:    10.5228413369

- q-position: [    0.5625000,    0.3125000,    0.3125000 ]
  distance_from_gamma:  0.141125838
  weight: 6    
  band:
  - # 1
    frequency:     6.5871516707
  - # 2
    frequency:     6.7386054818
  - # 3
    frequency:     7.8911758328
  - # 4
    frequency:     8.7434642168
  - # 5
    frequency:     9.4962064741
  - # 6
    frequency:    10.5543164331

- q-position: [    0.6875000,    0.3125000,    0.3125000 ]
  distance_from_gamma:  0.172312137
  weight: 6    
  band:
  - # 1
    frequency:     6.4457577037
  - # 2
    frequency:     7.4941877542
  - # 3
    frequency:     7.8477861189
  - # 4
    frequency:     8.8559220967
  - # 5
    frequency:     9.9732944423
  - # 6
    frequency:    10.8629458277

- q-position: [    0.4375000,    0.4375000,    0.3125000 ]
  distance_from_gamma:  0.126516853
  weight: 6    
  band:
  - # 1
    frequency:     5.7146034593
  - # 2
    frequency:     6.3955050688
  - # 3
    frequency:     7.7996154072
  - # 4
    frequency:     8.7548019001
  - # 5
    frequency:     9.0112744847
  - # 6
    frequency:    10.5625372246

- q-position: [    0.5625000,    0.4375000,    0.3125000 ]
  distance_from_gamma:  0.147890149
  weight: 12   
  band:
  - # 1
    frequency:     6.3968353497
  - # 2
    frequency:     6.9552524680
  - # 3
    frequency:     7.7570479521
  - # 4
    frequency:     8.7168467777
  - # 5
    frequency:     9.7730408530
  - # 6
    frequency:    10.5360139062

- q-position: [    0.6875000,    0.4375000,    0.3125000 ]
  distance_from_gamma:  0.175125583
  weight: 12   
  band:
  - # 1
    frequency:     6.7926276729
  - # 2
    frequency:     7.3695224775
  - # 3
    frequency:     7.9639323419
  - # 4
    frequency:     8.4311817218
  - # 5
    frequency:    10.3508813400
  - # 6
    frequency:    10.8067354032

- q-position: [    0.5625000,    0.5625000,    0.3125000 ]
  distance_from_gamma:  0.163581727
  weight: 6    
  band:
  - # 1
    frequency:     6.3154615260
  - # 2
    frequency:     7.3189043752
  - # 3
    frequency:     7.7657633921
  - # 4
    frequency:     8.8451565520
  - # 5
    frequency:     9.9390342805
  - # 6
    frequency:    10.6662245861

- q-position: [    0.4375000,    0.4375000,    0.4375000 ]
  distance_from_gamma:  0.134020551
  weight: 2    
  band:
  - # 1
    frequency:     6.2941195158
  - # 2
    frequency:     6.2941195158
  - # 3
    frequency:     7.9006067731
  - # 4
    frequency:     7.9006067731
  - # 5
    frequency:     9.0912877871
  - # 6
    frequency:    10.6300676724

- q-position: [    0.5625000,    0.4375000,    0.4375000 ]
  distance_from_gamma:  0.151158835
  weight: 6    
  band:
  - # 1
    frequency:     6.6137082230
  - # 2
    frequency:     6.6430692929
  - # 3
    frequency:     7.8958528131
  - # 4
    frequency:     8.1054986904
  - # 5
    frequency:     9.4321904764
  - # 6
    frequency:    10.5606935285
