nqpoint: 1      
npath: 1      
segment_nqpoint:
- 1
reciprocal_lattice:
- [   0.31136464,   0.17976646,   0.00000000 ] # a*
- [   0.00000000,   0.35953292,   0.00000000 ] # b*
- [   0.00000000,   0.00000000,   0.19221740 ] # c*
natom: 2      
lattice:
- [     3.211668444827870,     0.000000000000000,     0.000000000000000 ] # a
- [    -1.605834222413930,     2.781386461750960,     0.000000000000000 ] # b
- [     0.000000000000000,     0.000000000000000,     5.202442629952290 ] # c
points:
- symbol: Zr # 1
  coordinates: [  0.000000000000000,  0.000000000000000,  0.000000000000000 ]
  mass: 91.224000
- symbol: Zr # 2
  coordinates: [  0.666666666666660,  0.333333333333340,  0.500000000000000 ]
  mass: 91.224000

phonon:
- q-position: [    0.0000000,    0.0000000,    0.0000000 ]
  distance:    0.0000000
  band:
  - # 1
    frequency:   -0.0000000470
    eigenvector:
    - # atom 1
      - [  0.69172536503201,  0.00000000000000 ]
      - [ -0.14582560647155,  0.00000000000000 ]
      - [  0.01584019786483,  0.00000000000000 ]
    - # atom 2
      - [  0.69172536503228,  0.00000000000000 ]
      - [ -0.14582560647121,  0.00000000000000 ]
      - [  0.01584019786483,  0.00000000000000 ]
  - # 2
    frequency:   -0.0000000274
    eigenvector:
    - # atom 1
      - [ -0.14654105973250,  0.00000000000000 ]
      - [ -0.68364976068103,  0.00000000000000 ]
      - [  0.10558751125479,  0.00000000000000 ]
    - # atom 2
      - [ -0.14654105973256,  0.00000000000000 ]
      - [ -0.68364976068140,  0.00000000000000 ]
      - [  0.10558751125479,  0.00000000000000 ]
  - # 3
    frequency:    0.0000000663
    eigenvector:
    - # atom 1
      - [  0.00646043215345, -0.00000000000000 ]
      - [  0.10657343579787,  0.00000000000000 ]
      - [  0.69899954620774,  0.00000000000000 ]
    - # atom 2
      - [  0.00646043215346,  0.00000000000000 ]
      - [  0.10657343579792,  0.00000000000000 ]
      - [  0.69899954620774,  0.00000000000000 ]
  - # 4
    frequency:    2.0487682785
    eigenvector:
    - # atom 1
      - [  0.07080365936885,  0.00000000000000 ]
      - [  0.70355301280019,  0.00000000000000 ]
      - [ -0.00000000000000,  0.00000000000000 ]
    - # atom 2
      - [ -0.07080365936842,  0.00000000000000 ]
      - [ -0.70355301279989,  0.00000000000000 ]
      - [ -0.00000000000000,  0.00000000000000 ]
  - # 5
    frequency:    2.0487682785
    eigenvector:
    - # atom 1
      - [ -0.70355301280016, -0.00000000000000 ]
      - [  0.07080365936865,  0.00000000000000 ]
      - [  0.00000000000000,  0.00000000000000 ]
    - # atom 2
      - [  0.70355301279992,  0.00000000000000 ]
      - [ -0.07080365936863,  0.00000000000000 ]
      - [ -0.00000000000000,  0.00000000000000 ]
  - # 6
    frequency:    4.6767356141
    eigenvector:
    - # atom 1
      - [  0.00000000000000,  0.00000000000000 ]
      - [  0.00000000000000,  0.00000000000000 ]
      - [  0.70710678118655,  0.00000000000000 ]
    - # atom 2
      - [ -0.00000000000000,  0.00000000000000 ]
      - [  0.00000000000000,  0.00000000000000 ]
      - [ -0.70710678118655,  0.00000000000000 ]

