36   
1    

1    
  0.0067944039086897   0.0000000000000000   0.0073373071031260
  -0.0391021349    0.0000335381   -0.0438601060
   0.0098203025    0.0028861557    0.0008109547
   0.0096571103   -0.0028543566    0.0007814096
   0.0033652311   -0.0008198659    0.0007862797
   0.0033696537    0.0007965471    0.0008059783
   0.0004719459    0.0000049917    0.0011399346
   0.0033649218   -0.0065627326    0.0008010819
   0.0004719990   -0.0000085476    0.0011397366
   0.0033698556    0.0065341437    0.0007912283
  -0.0025544149   -0.0000020003    0.0084035947
   0.0012588432   -0.0004842414   -0.0002716816
   0.0012694323    0.0004815827   -0.0002424103
   0.0001273958   -0.0011445175   -0.0002503959
   0.0001248308    0.0011358222   -0.0002639114
  -0.0002949077    0.0000054510   -0.0000039383
   0.0001248739   -0.0001706008   -0.0002649259
  -0.0002943821   -0.0000013287   -0.0000038771
   0.0001269554    0.0001773972   -0.0002491705
   0.0088552568    0.0054339882    0.0115976878
  -0.0003076168   -0.0001568079   -0.0003368731
  -0.0019978433    0.0008245837    0.0014580339
  -0.0017408309   -0.0007947299   -0.0011271876
   0.0002961885   -0.0003507391   -0.0004687989
   0.0005673916    0.0005030873   -0.0002087426
  -0.0018645712    0.0000627205   -0.0017665072
  -0.0004751336    0.0007220905   -0.0004848167
  -0.0005632979   -0.0062479496    0.0065220017
  -0.0019626606   -0.0007984396    0.0015201937
  -0.0003142690    0.0001568141   -0.0003290813
   0.0085968701   -0.0053057562    0.0112097895
  -0.0017638691    0.0007750534   -0.0011160208
   0.0005794169   -0.0005179994   -0.0002056730
   0.0003070238    0.0003567041   -0.0004490604
  -0.0004876433   -0.0007456385   -0.0004996876
  -0.0018154277   -0.0000385150   -0.0017345605
  -0.0005864962    0.0061140955    0.0063695220
