default value
2.435076 0 0 0 2.435076 0 0 0 2.435076
1.08559 0 0 0 1.08559 0 0 0 1.08559
-1.08559 0 0 0 -1.08559 0 0 0 -1.08559
