 128  128
1 1
     6.301631601485133    -0.000000000000560    -0.000000000000391
    -0.000000000000560     6.301631601483548     0.000000000000774
    -0.000000000000391     0.000000000000774     6.301631601483781
1 2
    -0.427111248368231     0.000000000002566     0.000000000001817
     0.000000000002508     0.000321742982393    -0.000895836205079
     0.000000000001749    -0.000895836205142     0.000955194838551
1 3
     0.004396632399450    -0.000000000000388    -0.000000000000275
    -0.000000000000545    -0.000566574497652     0.000260847852287
    -0.000000000000371     0.000260847852209    -0.000751021782056
1 4
    -0.427111248368231     0.000000000002566     0.000000000001817
     0.000000000002508     0.000321742982393    -0.000895836205079
     0.000000000001749    -0.000895836205142     0.000955194838551
1 5
    -0.106536504854234    -0.185083914460192    -0.000775816912033
    -0.185083914463327    -0.320253000526190     0.000447918102851
    -0.000775816911702     0.000447918103732     0.000955194838403
1 6
     0.001537035940322     0.001254852088024     0.000161718539621
     0.001254852087630     0.000088057558196     0.000093368242785
     0.000161718539440     0.000093368242337    -0.000668706545716
1 7
     0.001537035940483    -0.001254852088065    -0.000161718539755
    -0.001254852088309     0.000088057558118     0.000093368242974
    -0.000161718539721     0.000093368242753    -0.000668706545803
1 8
    -0.106536504855059     0.185083914466009     0.000775816913108
     0.185083914459885    -0.320253000531009     0.000447918100374
     0.000775816915470     0.000447918095928     0.000955194838755
1 9
     0.000674227227583     0.002149131627900     0.000225900866065
     0.002149131627819     0.003155830674470    -0.000130423925323
     0.000225900865924    -0.000130423925474    -0.000751021782392
1 10
    -0.000636431632058    -0.000000000000150    -0.000000000000137
    -0.000000000000364     0.002261525130438    -0.000186736484421
    -0.000000000000037    -0.000186736484413    -0.000668706545633
1 11
     0.000674227226987    -0.002149131628482    -0.000225900866206
    -0.002149131628410     0.003155830674719    -0.000130423925578
    -0.000225900866667    -0.000130423925720    -0.000751021781996
1 12
    -0.000636431632058    -0.000000000000150    -0.000000000000137
    -0.000000000000364     0.002261525130438    -0.000186736484421
    -0.000000000000037    -0.000186736484413    -0.000668706545633
1 13
    -0.106536504854234    -0.185083914460192    -0.000775816912033
    -0.185083914463327    -0.320253000526189     0.000447918102851
    -0.000775816911702     0.000447918103732     0.000955194838403
1 14
    -0.106536504855059     0.185083914466009     0.000775816913108
     0.185083914459885    -0.320253000531009     0.000447918100374
     0.000775816915470     0.000447918095928     0.000955194838755
1 15
     0.001537035940483    -0.001254852088065    -0.000161718539755
    -0.001254852088309     0.000088057558118     0.000093368242974
    -0.000161718539721     0.000093368242753    -0.000668706545803
1 16
     0.001537035940322     0.001254852088024     0.000161718539621
     0.001254852087630     0.000088057558196     0.000093368242785
     0.000161718539440     0.000093368242337    -0.000668706545716
1 17
    -0.106536504854462    -0.062426085350847    -0.174240182367567
    -0.062426085351295    -0.034453070486079    -0.100597616189975
    -0.174240182372650    -0.100597616192264    -0.284844735204566
1 18
     0.001537035940493     0.000570753730545     0.001129179714397
     0.000570753730200    -0.000525936029849     0.000310447757752
     0.001129179714287     0.000310447757593    -0.000054712957810
1 19
     0.001537035940634    -0.000570753730871    -0.001129179714519
    -0.000570753730837    -0.000525936029811     0.000310447757846
    -0.001129179714927     0.000310447757602    -0.000054712957918
1 20
    -0.106536504854931     0.062426085354020     0.174240182372796
     0.062426085354017    -0.034453070489915    -0.100597616197916
     0.174240182368270    -0.100597616194959    -0.284844735205620
1 21
     0.000484094193139     0.001178669931591     0.000833445501453
     0.001178669931436     0.000527005717265     0.000822674439863
     0.000833445501454     0.000822674439790    -0.000054712957543
1 22
     0.000382134818108    -0.000000000000708    -0.000000000000459
    -0.000000000000653     0.000382134816752     0.000000000000742
    -0.000000000000539     0.000000000000618     0.000382134817347
1 23
     0.000484094193579    -0.001178669931990    -0.000833445501672
    -0.001178669932338     0.000527005716957     0.000822674440275
    -0.000833445501789     0.000822674440119    -0.000054712957746
1 24
    -0.008988121316704    -0.000000000000144     0.000000000000061
     0.000000000000486     0.074535922062185     0.059060417466155
     0.000000000000383     0.059060417466135     0.032773900374301
1 25
    -0.000504480267091     0.000607916200924    -0.000295734213380
     0.000607916200668     0.001515580177379    -0.001133122196398
    -0.000295734213172    -0.001133122196559    -0.000054712957411
1 26
    -0.000504480266882    -0.000607916201506     0.000295734212773
    -0.000607916201526     0.001515580177264    -0.001133122196294
     0.000295734212593    -0.001133122196378    -0.000054712957473
1 27
     0.000485301875088    -0.000851600910172     0.000402124744898
    -0.000851600910056     0.001468645904286     0.000232166830086
     0.000402124744843     0.000232166829768     0.000321963340088
1 28
     0.000485301875979     0.000851600909731    -0.000402124745095
     0.000851600909872     0.001468645903807     0.000232166830389
    -0.000402124745263     0.000232166830315     0.000321963339646
1 29
     0.001588646695188     0.000000000000025     0.000000000000026
    -0.000000000000360    -0.142578222036449     0.201195232385648
    -0.000000000000254     0.201195232391144    -0.284844735202653
1 30
     0.053654911218686    -0.036166971697827     0.051147821882499
    -0.036166971698191     0.011892889528437    -0.029530208732339
     0.051147821882375    -0.029530208732530     0.032773900372274
1 31
     0.001960317919371    -0.000000000000537    -0.000000000000385
    -0.000000000000535    -0.000006370139888    -0.000464333659212
    -0.000000000000397    -0.000464333659255     0.000321963340005
1 32
     0.053654911218756     0.036166971696919    -0.051147821883154
     0.036166971695505     0.011892889526910    -0.029530208731432
    -0.051147821884040    -0.029530208732671     0.032773900373703
1 33
     0.000674227227338     0.000929358588390     0.001950920441762
     0.000929358588329    -0.000398903635880     0.001126364442599
     0.001950920441670     0.001126364442539     0.002803712528225
1 34
    -0.000636431631830    -0.000000000000296    -0.000000000000105
    -0.000000000000502    -0.000460496479321     0.000775643485202
    -0.000000000000282     0.000775643484864     0.002053315063991
1 35
     0.000674227227089    -0.000929358588687    -0.001950920442040
    -0.000929358588904    -0.000398903635863     0.001126364442651
    -0.001950920442027     0.001126364442452     0.002803712528539
1 36
    -0.000636431631830    -0.000000000000296    -0.000000000000105
    -0.000000000000502    -0.000460496479321     0.000775643485202
    -0.000000000000282     0.000775643484864     0.002053315063991
1 37
    -0.000504480266989    -0.000076182156641     0.000671726961786
    -0.000076182156754    -0.000592447844541    -0.000387821741796
     0.000671726961530    -0.000387821741923     0.002053315064195
1 38
    -0.000504480266614     0.000076182155713    -0.000671726962222
     0.000076182155807    -0.000592447844621    -0.000387821741855
    -0.000671726962214    -0.000387821741863     0.002053315064089
1 39
     0.000485301875264     0.000095259875420    -0.000936938619681
     0.000095259875266     0.000595298504410     0.000540941764405
    -0.000936938619429     0.000540941764340     0.001195310739758
1 40
     0.000485301875776    -0.000095259875519     0.000936938619350
    -0.000095259875433     0.000595298504650     0.000540941764524
     0.000936938619437     0.000540941764266     0.001195310739017
1 41
    -0.000935469066415    -0.000000000000039    -0.000000000000008
    -0.000000000000248     0.001210792657941    -0.002252728884048
    -0.000000000000182    -0.002252728884288     0.002803712528170
1 42
     0.000650296819865     0.000000000000058     0.000000000000055
    -0.000000000000302     0.000430303560422    -0.001081883527839
    -0.000000000000222    -0.001081883528267     0.001195310739166
1 43
    -0.000365105181785    -0.000000000000200    -0.000000000000183
    -0.000000000000902    -0.000365105182756     0.000000000000591
    -0.000000000000621     0.000000000000488    -0.000365105182380
1 44
     0.000650296819865     0.000000000000058     0.000000000000055
    -0.000000000000302     0.000430303560422    -0.001081883527839
    -0.000000000000222    -0.001081883528267     0.001195310739166
1 45
    -0.000504480266989    -0.000076182156641     0.000671726961786
    -0.000076182156754    -0.000592447844541    -0.000387821741796
     0.000671726961530    -0.000387821741923     0.002053315064195
1 46
     0.000485301875776    -0.000095259875519     0.000936938619350
    -0.000095259875433     0.000595298504650     0.000540941764524
     0.000936938619437     0.000540941764266     0.001195310739017
1 47
     0.000485301875264     0.000095259875420    -0.000936938619681
     0.000095259875266     0.000595298504410     0.000540941764405
    -0.000936938619429     0.000540941764340     0.001195310739758
1 48
    -0.000504480266614     0.000076182155713    -0.000671726962222
     0.000076182155807    -0.000592447844621    -0.000387821741855
    -0.000671726962214    -0.000387821741863     0.002053315064089
1 49
    -0.106536504854462    -0.062426085350847    -0.174240182367567
    -0.062426085351295    -0.034453070486079    -0.100597616189975
    -0.174240182372650    -0.100597616192264    -0.284844735204566
1 50
    -0.106536504854931     0.062426085354020     0.174240182372796
     0.062426085354017    -0.034453070489915    -0.100597616197916
     0.174240182368270    -0.100597616194959    -0.284844735205620
1 51
     0.001537035940634    -0.000570753730871    -0.001129179714519
    -0.000570753730837    -0.000525936029811     0.000310447757846
    -0.001129179714927     0.000310447757602    -0.000054712957918
1 52
     0.001537035940493     0.000570753730545     0.001129179714397
     0.000570753730200    -0.000525936029849     0.000310447757752
     0.001129179714287     0.000310447757593    -0.000054712957810
1 53
     0.001588646695188     0.000000000000025     0.000000000000026
    -0.000000000000360    -0.142578222036449     0.201195232385648
    -0.000000000000254     0.201195232391144    -0.284844735202653
1 54
     0.053654911218756     0.036166971696919    -0.051147821883154
     0.036166971695505     0.011892889526910    -0.029530208731432
    -0.051147821884040    -0.029530208732671     0.032773900373703
1 55
     0.001960317919371    -0.000000000000537    -0.000000000000385
    -0.000000000000535    -0.000006370139888    -0.000464333659212
    -0.000000000000397    -0.000464333659255     0.000321963340005
1 56
     0.053654911218686    -0.036166971697827     0.051147821882499
    -0.036166971698191     0.011892889528437    -0.029530208732339
     0.051147821882375    -0.029530208732530     0.032773900372274
1 57
    -0.000504480267091     0.000607916200924    -0.000295734213380
     0.000607916200668     0.001515580177379    -0.001133122196398
    -0.000295734213172    -0.001133122196559    -0.000054712957411
1 58
     0.000485301875979     0.000851600909731    -0.000402124745095
     0.000851600909872     0.001468645903807     0.000232166830389
    -0.000402124745263     0.000232166830315     0.000321963339646
1 59
     0.000485301875088    -0.000851600910172     0.000402124744898
    -0.000851600910056     0.001468645904286     0.000232166830086
     0.000402124744843     0.000232166829768     0.000321963340088
1 60
    -0.000504480266882    -0.000607916201506     0.000295734212773
    -0.000607916201526     0.001515580177264    -0.001133122196294
     0.000295734212593    -0.001133122196378    -0.000054712957473
1 61
     0.000484094193139     0.001178669931591     0.000833445501453
     0.001178669931436     0.000527005717265     0.000822674439863
     0.000833445501454     0.000822674439790    -0.000054712957543
1 62
    -0.008988121316704    -0.000000000000144     0.000000000000061
     0.000000000000486     0.074535922062185     0.059060417466155
     0.000000000000383     0.059060417466135     0.032773900374301
1 63
     0.000484094193579    -0.001178669931990    -0.000833445501672
    -0.001178669932338     0.000527005716957     0.000822674440275
    -0.000833445501789     0.000822674440119    -0.000054712957746
1 64
     0.000382134818108    -0.000000000000708    -0.000000000000459
    -0.000000000000653     0.000382134816752     0.000000000000742
    -0.000000000000539     0.000000000000618     0.000382134817347
1 65
     0.089133447224862     0.051019178961601     0.036076007414783
     0.051019178961565     0.030221573805719     0.020828492592717
     0.036076007414618     0.020828492592686     0.015493605453258
1 66
    -0.004772360110120    -0.000000000000550    -0.000000000000444
    -0.000000000000526     0.000302858570514    -0.000428308534163
    -0.000000000000464    -0.000428308534271     0.000605718440428
1 67
     0.089133447223775    -0.051019178964013    -0.036076007416288
    -0.051019178964088     0.030221573807638     0.020828492593484
    -0.036076007416483     0.020828492593553     0.015493605454501
1 68
    -0.248448554635409    -0.000000000013741    -0.000000000009786
    -0.000000000013877    -1.465088200754750    -0.860294144038759
    -0.000000000009783    -0.860294144038667    -0.856768377708416
1 69
    -0.000965946098284    -0.002197634154130    -0.000370926071719
    -0.002197634154249    -0.003503555440768     0.000214154267955
    -0.000370926071927     0.000214154267944     0.000605718440057
1 70
    -0.000965946099678     0.002197634154033     0.000370926071602
     0.002197634153878    -0.003503555440113     0.000214154267555
     0.000370926071520     0.000214154267163     0.000605718440531
1 71
     0.001010959487577     0.002275357076585     0.000249087218510
     0.001970413116226    -0.003365640344851    -0.001466570123230
     0.000033459276443    -0.001093091572348     0.001389305258051
1 72
     0.001010959486950    -0.002275357076928    -0.000249087218929
    -0.001970413116935    -0.003365640344500    -0.001466570123616
    -0.000033459277470    -0.001093091572546     0.001389305258236
1 73
     0.000765637100564    -0.000000000000260     0.000000000000159
     0.000000000000358     0.118589383930685    -0.041656985183302
    -0.000000000000356    -0.041656985184070     0.015493605452404
1 74
    -0.000433017963016     0.002804093886246    -0.001145543374428
     0.003109037846033    -0.001921662894520     0.000949000921864
    -0.000929915432361     0.000575522370569     0.001389305258080
1 75
    -0.002081801704972    -0.000000000000895    -0.000000000000501
    -0.000000000000619    -0.002081801706292     0.000000000000790
    -0.000000000000495     0.000000000000570     0.000051464895387
1 76
    -0.000433017963930    -0.002804093886130     0.001145543374314
    -0.003109037846537    -0.001921662894443     0.000949000921514
     0.000929915432262     0.000575522370095     0.001389305258939
1 77
    -1.160928289244071     0.526820420415421    -0.745036583461759
     0.526820420406127    -0.552608466177493     0.430147072017584
    -0.745036583437885     0.430147072010983    -0.856768377671444
1 78
    -0.004109962809180     0.000986152749814    -0.001394630593194
     0.000681208789533     0.001755281951176     0.000517569203016
    -0.000963374709167     0.000517569203141     0.001389305258635
1 79
    -0.004109962809095    -0.000986152749764     0.001394630593183
    -0.000681208789800     0.001755281952023     0.000517569203128
     0.000963374708861     0.000517569202634     0.001389305257887
1 80
    -1.160928289244097    -0.526820420399518     0.745036583472999
    -0.526820420372491    -0.552608466148794     0.430147071996337
     0.745036583461638     0.430147072011950    -0.856768377700170
1 81
    -0.000965946098723    -0.001082257171992    -0.001948307326485
    -0.001082257172117     0.000283736840090    -0.001124855759116
    -0.001948307326552    -0.001124855759452    -0.003181573840599
1 82
    -0.000965946099422     0.001082257172057     0.001948307326573
     0.001082257171944     0.000283736839671    -0.001124855759269
     0.001948307326419    -0.001124855759345    -0.003181573839675
1 83
     0.001010959486983     0.000993294040747     0.002062198151443
     0.000688350080186     0.000056553905493    -0.002303019952955
     0.001846570209293    -0.002676498504145    -0.002032888992213
1 84
     0.001010959487341    -0.000993294041298    -0.002062198152029
    -0.000688350081653     0.000056553905036    -0.002303019952486
    -0.001846570210069    -0.002676498503916    -0.002032888991816
1 85
     0.000908578310162    -0.000000000000027     0.000000000000006
    -0.000000000000147    -0.001590787568942     0.002249711519166
    -0.000000000000162     0.002249711519162    -0.003181573840537
1 86
    -0.000659623971232     0.000821094697565     0.000580601628562
     0.000821094697571    -0.001607742460630     0.000335210506998
     0.000580601628760     0.000335210506646    -0.001844772083942
1 87
     0.000410669397056     0.000000000000354     0.000000000000360
     0.000000000000444    -0.001441325907961    -0.001309558437394
     0.000000000000441    -0.001309558437612    -0.000515328255687
1 88
    -0.000659623970536    -0.000821094697788    -0.000580601628680
    -0.000821094697690    -0.001607742461554     0.000335210507422
    -0.000580601628681     0.000335210507101    -0.001844772083843
1 89
     0.001023328566069     0.000681208789841    -0.000963374709024
     0.000986152749353     0.000044184825920     0.002937425964271
    -0.001394630593452     0.002937425963896    -0.002032888991652
1 90
    -0.000978327080813     0.000801937489623    -0.001134110875415
     0.000801937489382    -0.000052329429607     0.000654779219728
    -0.001134110875778     0.000654779219159    -0.000515328256082
1 91
    -0.000978327080750    -0.000801937490865     0.001134110874612
    -0.000801937491448    -0.000052329430086     0.000654779219632
     0.001134110874357     0.000654779219743    -0.000515328255386
1 92
     0.001023328566066    -0.000681208790385     0.000963374708498
    -0.000986152750465     0.000044184826063     0.002937425964088
     0.001394630592633     0.002937425964113    -0.002032888991629
1 93
    -0.000433017963463     0.000145330688761    -0.003025572860908
    -0.000159613271326     0.001500531355917    -0.000634406010219
    -0.003241200803017    -0.000260927459139    -0.002032888991642
1 94
    -0.002081801705805    -0.000000000000407    -0.000000000000257
    -0.000000000000242    -0.000185564727326    -0.000670421013046
     0.000000000000013    -0.000670421013158    -0.001844772082748
1 95
    -0.000433017962741    -0.000145330689004     0.003025572860811
     0.000159613271046     0.001500531355519    -0.000634406009696
     0.003241200802436    -0.000260927458507    -0.002032888991996
1 96
     0.000765637099593     0.000000000000002    -0.000000000000402
    -0.000000000000222     0.000765637099707     0.000000000000711
     0.000000000000546    -0.000000000000501     0.133317352285741
1 97
     0.000765637099593     0.000000000000002    -0.000000000000402
    -0.000000000000222     0.000765637099707     0.000000000000711
     0.000000000000546    -0.000000000000501     0.133317352285741
1 98
    -0.000433017962741    -0.000145330689004     0.003025572860811
     0.000159613271046     0.001500531355519    -0.000634406009696
     0.003241200802436    -0.000260927458507    -0.002032888991996
1 99
    -0.002081801705805    -0.000000000000407    -0.000000000000257
    -0.000000000000242    -0.000185564727326    -0.000670421013046
     0.000000000000013    -0.000670421013158    -0.001844772082748
1 100
    -0.000433017963463     0.000145330688761    -0.003025572860908
    -0.000159613271326     0.001500531355917    -0.000634406010219
    -0.003241200803017    -0.000260927459139    -0.002032888991642
1 101
     0.001023328566066    -0.000681208790385     0.000963374708498
    -0.000986152750465     0.000044184826063     0.002937425964088
     0.001394630592633     0.002937425964113    -0.002032888991629
1 102
    -0.000978327080750    -0.000801937490865     0.001134110874612
    -0.000801937491448    -0.000052329430086     0.000654779219632
     0.001134110874357     0.000654779219743    -0.000515328255386
1 103
    -0.000978327080813     0.000801937489623    -0.001134110875415
     0.000801937489382    -0.000052329429607     0.000654779219728
    -0.001134110875778     0.000654779219159    -0.000515328256082
1 104
     0.001023328566069     0.000681208789841    -0.000963374709024
     0.000986152749353     0.000044184825920     0.002937425964271
    -0.001394630593452     0.002937425963896    -0.002032888991652
1 105
    -0.000659623970536    -0.000821094697788    -0.000580601628680
    -0.000821094697690    -0.001607742461554     0.000335210507422
    -0.000580601628681     0.000335210507101    -0.001844772083843
1 106
     0.000410669397056     0.000000000000354     0.000000000000360
     0.000000000000444    -0.001441325907961    -0.001309558437394
     0.000000000000441    -0.001309558437612    -0.000515328255687
1 107
    -0.000659623971232     0.000821094697565     0.000580601628562
     0.000821094697571    -0.001607742460630     0.000335210506998
     0.000580601628760     0.000335210506646    -0.001844772083942
1 108
     0.000908578310162    -0.000000000000027     0.000000000000006
    -0.000000000000147    -0.001590787568942     0.002249711519166
    -0.000000000000162     0.002249711519162    -0.003181573840537
1 109
     0.001010959487341    -0.000993294041298    -0.002062198152029
    -0.000688350081653     0.000056553905036    -0.002303019952486
    -0.001846570210069    -0.002676498503916    -0.002032888991816
1 110
     0.001010959486983     0.000993294040747     0.002062198151443
     0.000688350080186     0.000056553905493    -0.002303019952955
     0.001846570209293    -0.002676498504145    -0.002032888992213
1 111
    -0.000965946099422     0.001082257172057     0.001948307326573
     0.001082257171944     0.000283736839671    -0.001124855759269
     0.001948307326419    -0.001124855759345    -0.003181573839675
1 112
    -0.000965946098723    -0.001082257171992    -0.001948307326485
    -0.001082257172117     0.000283736840090    -0.001124855759116
    -0.001948307326552    -0.001124855759452    -0.003181573840599
1 113
    -1.160928289244097    -0.526820420399518     0.745036583472999
    -0.526820420372491    -0.552608466148794     0.430147071996337
     0.745036583461639     0.430147072011950    -0.856768377700170
1 114
    -0.004109962809095    -0.000986152749764     0.001394630593183
    -0.000681208789800     0.001755281952023     0.000517569203128
     0.000963374708861     0.000517569202634     0.001389305257887
1 115
    -0.004109962809180     0.000986152749814    -0.001394630593194
     0.000681208789533     0.001755281951176     0.000517569203016
    -0.000963374709167     0.000517569203141     0.001389305258635
1 116
    -1.160928289244071     0.526820420415421    -0.745036583461759
     0.526820420406127    -0.552608466177493     0.430147072017584
    -0.745036583437885     0.430147072010983    -0.856768377671444
1 117
    -0.000433017963930    -0.002804093886130     0.001145543374314
    -0.003109037846537    -0.001921662894443     0.000949000921514
     0.000929915432262     0.000575522370095     0.001389305258939
1 118
    -0.002081801704972    -0.000000000000895    -0.000000000000501
    -0.000000000000619    -0.002081801706292     0.000000000000790
    -0.000000000000495     0.000000000000570     0.000051464895387
1 119
    -0.000433017963016     0.002804093886246    -0.001145543374428
     0.003109037846033    -0.001921662894520     0.000949000921864
    -0.000929915432361     0.000575522370569     0.001389305258080
1 120
     0.000765637100564    -0.000000000000260     0.000000000000159
     0.000000000000358     0.118589383930685    -0.041656985183302
    -0.000000000000356    -0.041656985184070     0.015493605452404
1 121
     0.001010959486950    -0.002275357076928    -0.000249087218929
    -0.001970413116935    -0.003365640344500    -0.001466570123616
    -0.000033459277470    -0.001093091572546     0.001389305258236
1 122
     0.001010959487577     0.002275357076585     0.000249087218510
     0.001970413116226    -0.003365640344851    -0.001466570123230
     0.000033459276443    -0.001093091572348     0.001389305258051
1 123
    -0.000965946099678     0.002197634154033     0.000370926071602
     0.002197634153878    -0.003503555440113     0.000214154267555
     0.000370926071520     0.000214154267163     0.000605718440531
1 124
    -0.000965946098284    -0.002197634154130    -0.000370926071719
    -0.002197634154249    -0.003503555440768     0.000214154267955
    -0.000370926071927     0.000214154267944     0.000605718440057
1 125
    -0.248448554635409    -0.000000000013741    -0.000000000009786
    -0.000000000013877    -1.465088200754750    -0.860294144038759
    -0.000000000009783    -0.860294144038667    -0.856768377708416
1 126
     0.089133447223775    -0.051019178964013    -0.036076007416288
    -0.051019178964088     0.030221573807638     0.020828492593484
    -0.036076007416483     0.020828492593553     0.015493605454501
1 127
    -0.004772360110120    -0.000000000000550    -0.000000000000444
    -0.000000000000526     0.000302858570514    -0.000428308534163
    -0.000000000000464    -0.000428308534271     0.000605718440428
1 128
     0.089133447224862     0.051019178961601     0.036076007414783
     0.051019178961565     0.030221573805719     0.020828492592717
     0.036076007414618     0.020828492592686     0.015493605453259
2 1
    -0.427111248368231     0.000000000002508     0.000000000001749
     0.000000000002566     0.000321742982393    -0.000895836205142
     0.000000000001817    -0.000895836205079     0.000955194838551
2 2
     6.301631601485273    -0.000000000000487    -0.000000000000370
    -0.000000000000487     6.301631601483781     0.000000000000725
    -0.000000000000370     0.000000000000725     6.301631601483914
2 3
    -0.427111248368052     0.000000000002715     0.000000000001890
     0.000000000002617     0.000321742982601    -0.000895836205143
     0.000000000001863    -0.000895836205159     0.000955194838781
2 4
     0.004396632399408    -0.000000000000521    -0.000000000000395
    -0.000000000000521    -0.000566574497624     0.000260847852240
    -0.000000000000395     0.000260847852240    -0.000751021782149
2 5
    -0.106536504852558     0.185083914463689     0.000775816913617
     0.185083914462413    -0.320253000535087     0.000447918100892
     0.000775816914594     0.000447918098544     0.000955194838442
2 6
    -0.106536504854517    -0.185083914459887    -0.000775816912052
    -0.185083914463240    -0.320253000526140     0.000447918102777
    -0.000775816911453     0.000447918103563     0.000955194838992
2 7
     0.001537035940591     0.001254852087269     0.000161718538907
     0.001254852087082     0.000088057558200     0.000093368242903
     0.000161718539010     0.000093368242745    -0.000668706545737
2 8
     0.001537035939848    -0.001254852087941    -0.000161718539663
    -0.001254852087962     0.000088057558936     0.000093368242185
    -0.000161718539778     0.000093368242194    -0.000668706545786
2 9
    -0.000636431631092     0.000000000000049     0.000000000000107
     0.000000000000019     0.002261525130553    -0.000186736484050
     0.000000000000039    -0.000186736484124    -0.000668706546152
2 10
     0.000674227226787     0.002149131627761     0.000225900865779
     0.002149131627553     0.003155830674589    -0.000130423925806
     0.000225900865961    -0.000130423925736    -0.000751021781733
2 11
    -0.000636431631686    -0.000000000000552    -0.000000000000277
    -0.000000000000469     0.002261525130712    -0.000186736484333
    -0.000000000000643    -0.000186736484430    -0.000668706545765
2 12
     0.000674227226754    -0.002149131628065    -0.000225900866113
    -0.002149131628174     0.003155830674681    -0.000130423925778
    -0.000225900865976    -0.000130423925682    -0.000751021781726
2 13
     0.001537035940743     0.001254852087724     0.000161718539581
     0.001254852087675     0.000088057558389     0.000093368242756
     0.000161718539291     0.000093368242520    -0.000668706546180
2 14
    -0.106536504857680    -0.185083914465033    -0.000775816912618
    -0.185083914462081    -0.320253000522949     0.000447918102218
    -0.000775816914552     0.000447918098998     0.000955194838844
2 15
    -0.106536504851640     0.185083914461351     0.000775816912965
     0.185083914461164    -0.320253000534180     0.000447918101044
     0.000775816913067     0.000447918100886     0.000955194838874
2 16
     0.001537035940391    -0.001254852087294    -0.000161718539088
    -0.001254852087632     0.000088057558385     0.000093368242749
    -0.000161718539209     0.000093368242389    -0.000668706545640
2 17
    -0.106536504854314     0.062426085354542     0.174240182373166
     0.062426085355259    -0.034453070489733    -0.100597616198694
     0.174240182371532    -0.100597616196560    -0.284844735211297
2 18
    -0.106536504854348    -0.062426085350924    -0.174240182367677