128  
2    

1    
  0.0300000000000000  -0.0000000000000029  -0.0000000000000020
  -0.1890489479    0.0000000000    0.0000000000
   0.0132886566   -0.0000000000   -0.0000000000
  -0.0001319008   -0.0000000000    0.0000000000
   0.0123502716   -0.0000000000   -0.0000000000
   0.0031989405    0.0056411197    0.0000234519
  -0.0000456212   -0.0000376373   -0.0000051829
  -0.0000465989    0.0000376523    0.0000045236
   0.0031898999   -0.0054587751   -0.0000235657
  -0.0000202260   -0.0000644732   -0.0000067773
   0.0000190931   -0.0000001294    0.0000000286
  -0.0000202260    0.0000644732    0.0000067773
   0.0000190931    0.0000001294   -0.0000000286
   0.0031898999    0.0054587751    0.0000235657
   0.0031989405   -0.0056411197   -0.0000234519
  -0.0000456212    0.0000376373    0.0000051829
  -0.0000465989   -0.0000376523   -0.0000045236
   0.0031989405    0.0019024839    0.0053106814
  -0.0000456212   -0.0000174323   -0.0000337571
  -0.0000465989    0.0000168157    0.0000339911
   0.0031898999   -0.0018418096   -0.0051387273
  -0.0000143371   -0.0000350386   -0.0000247760
  -0.0000114639   -0.0000000469   -0.0000000332
  -0.0000147106    0.0000356818    0.0000252308
   0.0002695016    0.0000079143    0.0000055963
   0.0000149623   -0.0000183034    0.0000088829
   0.0000153062    0.0000181764   -0.0000088637
  -0.0000147520    0.0000256909   -0.0000121868
  -0.0000143656   -0.0000254043    0.0000119410
  -0.0000470854    0.0000275550   -0.0000389686
  -0.0016259749    0.0011028116   -0.0015596111
  -0.0000588102    0.0000003180   -0.0000004498
  -0.0015931773   -0.0010672888    0.0015093743
  -0.0000202260   -0.0000278808   -0.0000585268
   0.0000190931   -0.0000000162   -0.0000001315
  -0.0000202260    0.0000278808    0.0000585268
   0.0000190931    0.0000000162    0.0000001315
   0.0000149623    0.0000022738   -0.0000202175
   0.0000153062   -0.0000022980    0.0000200914
  -0.0000147520   -0.0000029262    0.0000282839
  -0.0000143656    0.0000027899   -0.0000279318
   0.0000280635   -0.0000000000   -0.0000000000
  -0.0000195469   -0.0000000000   -0.0000000000
   0.0000109533   -0.0000000000    0.0000000000
  -0.0000194699    0.0000000000   -0.0000000000
   0.0000153062    0.0000022980   -0.0000200914
  -0.0000147520    0.0000029262   -0.0000282839
  -0.0000143656   -0.0000027899    0.0000279318
   0.0000149623   -0.0000022738    0.0000202175
   0.0031898999    0.0018418096    0.0051387273
   0.0031989405   -0.0019024839   -0.0053106814
  -0.0000456212    0.0000174323    0.0000337571
  -0.0000465989   -0.0000168157   -0.0000339911
  -0.0000470854   -0.0000275550    0.0000389686
  -0.0016259749   -0.0011028116    0.0015596111
  -0.0000588102   -0.0000003180    0.0000004498
  -0.0015931773    0.0010672888   -0.0015093743
   0.0000153062   -0.0000181764    0.0000088637
  -0.0000147520   -0.0000256909    0.0000121868
  -0.0000143656    0.0000254043   -0.0000119410
   0.0000149623    0.0000183034   -0.0000088829
  -0.0000147106   -0.0000356818   -0.0000252308
   0.0002695016   -0.0000079143   -0.0000055963
  -0.0000143371    0.0000350386    0.0000247760
  -0.0000114639    0.0000000469    0.0000000332
  -0.0050407207   -0.0029159708   -0.0020619027
   0.0001431702    0.0000008551    0.0000006046
  -0.0002983080    0.0001555420    0.0001099848
   0.0074745274   -0.0002365839   -0.0001672901
   0.0000291044    0.0000659431    0.0000112640
   0.0000288502   -0.0000659119   -0.0000109920
  -0.0000301336   -0.0000683643   -0.0000074332
  -0.0000305200    0.0000681530    0.0000075123
  -0.0000274541   -0.0000015180    0.0000005325
   0.0000126833   -0.0000845347    0.0000343596
   0.0000624542   -0.0000006648   -0.0000000166
   0.0000132934    0.0000837076   -0.0000343698
   0.0370091211   -0.0173133826    0.0244848204
   0.0001230194   -0.0000297509    0.0000420741
   0.0001235646    0.0000294156   -0.0000415999
   0.0326255109    0.0143080069   -0.0202345774
   0.0000291044    0.0000326009    0.0000584171
   0.0000288502   -0.0000323340   -0.0000584783
  -0.0000301336   -0.0000297962   -0.0000619768
  -0.0000305200    0.0000298003    0.0000617512
  -0.0000272564    0.0000000479    0.0000000339
   0.0000197546   -0.0000246467   -0.0000174279
  -0.0000123192   -0.0000000104   -0.0000000074
   0.0000198210    0.0000246159    0.0000174061
  -0.0000310430   -0.0000205309    0.0000290351
   0.0000294251   -0.0000243651    0.0000344575
   0.0000292728    0.0000237516   -0.0000335899
  -0.0000303540    0.0000203413   -0.0000287670
   0.0000126833   -0.0000042163    0.0000911533
   0.0000624542    0.0000002373    0.0000006212
   0.0000132934    0.0000045016   -0.0000903769
  -0.0000274541    0.0000000040    0.0000016087
  -0.0000274541   -0.0000000040   -0.0000016087
   0.0000126833    0.0000042163   -0.0000911533
   0.0000624542   -0.0000002373   -0.0000006212
   0.0000132934   -0.0000045016    0.0000903769
  -0.0000310430    0.0000205309   -0.0000290351
   0.0000294251    0.0000243651   -0.0000344575
   0.0000292728   -0.0000237516    0.0000335899
  -0.0000303540   -0.0000203413    0.0000287670
   0.0000197546    0.0000246467    0.0000174279
  -0.0000123192    0.0000000104    0.0000000074
   0.0000198210   -0.0000246159   -0.0000174061
  -0.0000272564   -0.0000000479   -0.0000000339
  -0.0000301336    0.0000297962    0.0000619768
  -0.0000305200   -0.0000298003   -0.0000617512
   0.0000291044   -0.0000326009   -0.0000584171
   0.0000288502    0.0000323340    0.0000584783
   0.0370091211    0.0173133826   -0.0244848204
   0.0001230194    0.0000297509   -0.0000420741
   0.0001235646   -0.0000294156    0.0000415999
   0.0326255109   -0.0143080069    0.0202345774
   0.0000126833    0.0000845347   -0.0000343596
   0.0000624542    0.0000006648    0.0000000166
   0.0000132934   -0.0000837076    0.0000343698
  -0.0000274541    0.0000015180   -0.0000005325
  -0.0000301336    0.0000683643    0.0000074332
  -0.0000305200   -0.0000681530   -0.0000075123
   0.0000291044   -0.0000659431   -0.0000112640
   0.0000288502    0.0000659119    0.0000109920
   0.0074745274    0.0002365839    0.0001672901
  -0.0050407207    0.0029159708    0.0020619027
   0.0001431702   -0.0000008551   -0.0000006046
  -0.0002983080   -0.0001555420   -0.0001099848

65   
  0.0300000000000000  -0.0000000000000029  -0.0000000000000020
  -0.0002989756   -0.0001556106   -0.0001100333
   0.0074745218    0.0002362694    0.0001670677
  -0.0050400588    0.0029159056    0.0020618566
   0.0001431742   -0.0000006506   -0.0000004600
   0.0326250043   -0.0143078952    0.0202344194
   0.0370096225    0.0173134930   -0.0244849766
   0.0001233637    0.0000206854   -0.0000292536
   0.0001232382   -0.0000201873    0.0000285491
  -0.0000274594    0.0000023738   -0.0000007794
   0.0000130180    0.0000940017   -0.0000281821
   0.0000624557    0.0000005676   -0.0000000811
   0.0000129654   -0.0000925508    0.0000276157
   0.0000288375    0.0000656922    0.0000110103
  -0.0000302178    0.0000586661    0.0000008578
  -0.0000304386   -0.0000595652   -0.0000011521
   0.0000291193   -0.0000661669   -0.0000112460
   0.0326250043    0.0143078952   -0.0202344194
   0.0370096225   -0.0173134930    0.0244849766
   0.0001233637   -0.0000206854    0.0000292536
   0.0001232382    0.0000201873   -0.0000285491
   0.0074745218   -0.0002362694   -0.0001670677
  -0.0050400588   -0.0029159056   -0.0020618567
   0.0001431742    0.0000006506    0.0000004600
  -0.0002989756    0.0001556106    0.0001100333
  -0.0000304386    0.0000595652    0.0000011521
   0.0000291193    0.0000661669    0.0000112460
   0.0000288375   -0.0000656922   -0.0000110103
  -0.0000302178   -0.0000586661   -0.0000008578
   0.0000129654    0.0000925508   -0.0000276157
  -0.0000274594   -0.0000023738    0.0000007794
   0.0000130180   -0.0000940017    0.0000281821
   0.0000624557   -0.0000005676    0.0000000811
  -0.0000274594    0.0000000564    0.0000024978
   0.0000130180    0.0000047636    0.0000980197
   0.0000624557    0.0000001127    0.0000005621
   0.0000129654   -0.0000048139   -0.0000964630
  -0.0000304386    0.0000209412    0.0000557746
   0.0000291193    0.0000326585    0.0000586341
   0.0000288375   -0.0000322780   -0.0000582651
  -0.0000302178   -0.0000203641   -0.0000550250
   0.0000198488    0.0000246317    0.0000174172
  -0.0000272568    0.0000000970    0.0000000686
   0.0000197269   -0.0000246329   -0.0000174181
  -0.0000123188   -0.0000000194   -0.0000000137
  -0.0000306007    0.0000292147   -0.0000413158
  -0.0000307982   -0.0000299589    0.0000423683
   0.0000293812   -0.0000242626    0.0000343125
   0.0000293180    0.0000238544   -0.0000337352
   0.0000288375    0.0000322780    0.0000582651
  -0.0000302178    0.0000203641    0.0000550250
  -0.0000304386   -0.0000209412   -0.0000557746
   0.0000291193   -0.0000326585   -0.0000586341
   0.0000129654    0.0000048139    0.0000964630
  -0.0000274594   -0.0000000564   -0.0000024978
   0.0000130180   -0.0000047636   -0.0000980197
   0.0000624557   -0.0000001127   -0.0000005621
  -0.0000306007   -0.0000292147    0.0000413158
  -0.0000307982    0.0000299589   -0.0000423683
   0.0000293812    0.0000242626   -0.0000343125
   0.0000293180   -0.0000238544    0.0000337352
  -0.0000272568   -0.0000000970   -0.0000000686
   0.0000197269    0.0000246329    0.0000174181
  -0.0000123188    0.0000000194    0.0000000137
   0.0000198488   -0.0000246317   -0.0000174172
  -0.2839791561    0.0000000000    0.0000000000
   0.0466169250   -0.0000000000   -0.0000000000
  -0.0001495852   -0.0000000000   -0.0000000000
   0.0439496642   -0.0000000000   -0.0000000000
   0.0078901808    0.0217962737    0.0000233430
  -0.0000167683   -0.0000191384   -0.0000058240
  -0.0000195592    0.0000202838    0.0000051191
   0.0079766499   -0.0212991828   -0.0000234592
  -0.0000203542   -0.0000746093   -0.0000086785
   0.0000159831   -0.0000000795    0.0000000203
  -0.0000203542    0.0000746093    0.0000086785
   0.0000159831    0.0000000795   -0.0000000203
   0.0079766499    0.0212991828    0.0000234592
   0.0078901808   -0.0217962737   -0.0000233430
  -0.0000167683    0.0000191384    0.0000058240
  -0.0000195592   -0.0000202838   -0.0000051191
   0.0078901808    0.0072874325    0.0205419429
  -0.0000167683   -0.0000118704   -0.0000161025
  -0.0000195592    0.0000115876    0.0000174174
   0.0079766499   -0.0071218452   -0.0200732424
   0.0000004958   -0.0000216583   -0.0000153147
  -0.0000156355   -0.0000000938   -0.0000000663
  -0.0000002225    0.0000229445    0.0000162242
   0.0010746568    0.0000123229    0.0000087136
   0.0000203099   -0.0000106885    0.0000010247
   0.0000206006    0.0000104637   -0.0000009762
  -0.0000187801    0.0000306985   -0.0000118274
  -0.0000184438   -0.0000303326    0.0000116047
  -0.0045418372    0.0001073238   -0.0001517787
  -0.0016067713    0.0015600671   -0.0022062680
  -0.0000714682    0.0000003460   -0.0000004893
  -0.0019915298   -0.0017569370    0.0024846841
  -0.0000203542   -0.0000330520   -0.0000674494
   0.0000159831   -0.0000000074   -0.0000000817
  -0.0000203542    0.0000330520    0.0000674494
   0.0000159831    0.0000000074    0.0000000817
   0.0000203099   -0.0000025967   -0.0000104188
   0.0000206006    0.0000025675    0.0000101907
  -0.0000187801   -0.0000009181    0.0000328853
  -0.0000184438    0.0000008302   -0.0000324661
   0.0000368921    0.0000000000    0.0000000000
  -0.0000201131   -0.0000000000    0.0000000000
   0.0000033586   -0.0000000000   -0.0000000000
  -0.0000201376   -0.0000000000    0.0000000000
   0.0000206006   -0.0000025675   -0.0000101907
  -0.0000187801    0.0000009181   -0.0000328853
  -0.0000184438   -0.0000008302    0.0000324661
   0.0000203099    0.0000025967    0.0000104188
   0.0079766499    0.0071218452    0.0200732424
   0.0078901808   -0.0072874325   -0.0205419429
  -0.0000167683    0.0000118704    0.0000161025
  -0.0000195592   -0.0000115876   -0.0000174174
  -0.0045418372   -0.0001073238    0.0001517787
  -0.0016067713   -0.0015600671    0.0022062680
  -0.0000714682   -0.0000003460    0.0000004893
  -0.0019915298    0.0017569370   -0.0024846841
   0.0000206006   -0.0000104637    0.0000009762
  -0.0000187801   -0.0000306985    0.0000118274
  -0.0000184438    0.0000303326   -0.0000116047
   0.0000203099    0.0000106885   -0.0000010247
  -0.0000002225   -0.0000229445   -0.0000162242
   0.0010746568   -0.0000123229   -0.0000087136
   0.0000004958    0.0000216583    0.0000153147
  -0.0000156355    0.0000000938    0.0000000663
