nqpoint: 204    
npath: 4      
segment_nqpoint:
- 51
- 51
- 51
- 51
labels:
- [ '$\Gamma$', 'K' ]
- [ 'K', 'M' ]
- [ 'M', '$\Gamma$' ]
- [ '$\Gamma$', 'A' ]
reciprocal_lattice:
- [   0.31136464,   0.17976646,   0.00000000 ] # a*
- [   0.00000000,   0.35953292,   0.00000000 ] # b*
- [   0.00000000,   0.00000000,   0.19221740 ] # c*
natom: 2      
lattice:
- [     3.211668444827870,     0.000000000000000,     0.000000000000000 ] # a
- [    -1.605834222413930,     2.781386461750960,     0.000000000000000 ] # b
- [     0.000000000000000,     0.000000000000000,     5.202442629952290 ] # c
points:
- symbol: Zr # 1
  coordinates: [  0.000000000000000,  0.000000000000000,  0.000000000000000 ]
  mass: 91.224000
- symbol: Zr # 2
  coordinates: [  0.666666666666660,  0.333333333333340,  0.500000000000000 ]
  mass: 91.224000
supercell_matrix:
- [    9,    0,    0 ]
- [    0,    9,    0 ]
- [    0,    0,    4 ]

phonon:
- q-position: [    0.0000000,    0.0000000,    0.0000000 ]
  distance:    0.0000000
  band:
  - # 1
    frequency:   -0.0000000887
  - # 2
    frequency:   -0.0000000679
  - # 3
    frequency:    0.0000000860
  - # 4
    frequency:    2.0532736306
  - # 5
    frequency:    2.0532736306
  - # 6
    frequency:    4.6809904763

- q-position: [    0.0066667,    0.0066667,    0.0000000 ]
  distance:    0.0041515
  band:
  - # 1
    frequency:    0.0773206890
  - # 2
    frequency:    0.0988551458
  - # 3
    frequency:    0.1784780041
  - # 4
    frequency:    2.0583160535
  - # 5
    frequency:    2.0630174039
  - # 6
    frequency:    4.6817251852

- q-position: [    0.0133333,    0.0133333,    0.0000000 ]
  distance:    0.0083031
  band:
  - # 1
    frequency:    0.1545852966
  - # 2
    frequency:    0.1980759096
  - # 3
    frequency:    0.3564754297
  - # 4
    frequency:    2.0733995754
  - # 5
    frequency:    2.0918580392
  - # 6
    frequency:    4.6839134712

- q-position: [    0.0200000,    0.0200000,    0.0000000 ]
  distance:    0.0124546
  band:
  - # 1
    frequency:    0.2317384905
  - # 2
    frequency:    0.2979516552
  - # 3
    frequency:    0.5334986323
  - # 4
    frequency:    2.0983990333
  - # 5
    frequency:    2.1386869192
  - # 6
    frequency:    4.6875080914

- q-position: [    0.0266667,    0.0266667,    0.0000000 ]
  distance:    0.0166061
  band:
  - # 1
    frequency:    0.3087264272
  - # 2
    frequency:    0.3986440341
  - # 3
    frequency:    0.7090276198
  - # 4
    frequency:    2.1331252144
  - # 5
    frequency:    2.2018442578
  - # 6
    frequency:    4.6924312304

- q-position: [    0.0333333,    0.0333333,    0.0000000 ]
  distance:    0.0207576
  band:
  - # 1
    frequency:    0.3854974743
  - # 2
    frequency:    0.5001719445
  - # 3
    frequency:    0.8825026753
  - # 4
    frequency:    2.1773509970
  - # 5
    frequency:    2.2793331591
  - # 6
    frequency:    4.6985758534

- q-position: [    0.0400000,    0.0400000,    0.0000000 ]
  distance:    0.0249092
  band:
  - # 1
    frequency:    0.4620029062
  - # 2
    frequency:    0.6024283048
  - # 3
    frequency:    1.0533118157
  - # 4
    frequency:    2.2308422243
  - # 5
    frequency:    2.3690232801
  - # 6
    frequency:    4.7058075405

- q-position: [    0.0466667,    0.0466667,    0.0000000 ]
  distance:    0.0290607
  band:
  - # 1
    frequency:    0.5381975639
  - # 2
    frequency:    0.7052147272
  - # 3
    frequency:    1.2207815463
  - # 4
    frequency:    2.2933876786
  - # 5
    frequency:    2.4688079482
  - # 6
    frequency:    4.7139667466

- q-position: [    0.0533333,    0.0533333,    0.0000000 ]
  distance:    0.0332122
  band:
  - # 1
    frequency:    0.6140404709
  - # 2
    frequency:    0.8082799822
  - # 3
    frequency:    1.3841758301
  - # 4
    frequency:    2.3648205349
  - # 5
    frequency:    2.5767046233
  - # 6
    frequency:    4.7228714214

- q-position: [    0.0600000,    0.0600000,    0.0000000 ]
  distance:    0.0373638
  band:
  - # 1
    frequency:    0.6894953962
  - # 2
    frequency:    0.9113531217
  - # 3
    frequency:    1.5427113438
  - # 4
    frequency:    2.4450213019
  - # 5
    frequency:    2.6909061880
  - # 6
    frequency:    4.7323199162

- q-position: [    0.0666667,    0.0666667,    0.0000000 ]
  distance:    0.0415153
  band:
  - # 1
    frequency:    0.7645313557
  - # 2
    frequency:    1.0141676588
  - # 3
    frequency:    1.6955992723
  - # 4
    frequency:    2.5338909181
  - # 5
    frequency:    2.8097973206
  - # 6
    frequency:    4.7420941026

- q-position: [    0.0733333,    0.0733333,    0.0000000 ]
  distance:    0.0456668
  band:
  - # 1
    frequency:    0.8391230450
  - # 2
    frequency:    1.1164769254
  - # 3
    frequency:    1.8421210810
  - # 4
    frequency:    2.6312862163
  - # 5
    frequency:    2.9319497346
  - # 6
    frequency:    4.7519626269

- q-position: [    0.0800000,    0.0800000,    0.0000000 ]
  distance:    0.0498183
  band:
  - # 1
    frequency:    0.9132511936
  - # 2
    frequency:    1.2180624277
  - # 3
    frequency:    1.9817326967
  - # 4
    frequency:    2.7369234950
  - # 5
    frequency:    3.0561066515
  - # 6
    frequency:    4.7616842292

- q-position: [    0.0866667,    0.0866667,    0.0000000 ]
  distance:    0.0539699
  band:
  - # 1
    frequency:    0.9869028362
  - # 2
    frequency:    1.3187373511
  - # 3
    frequency:    2.1141687915
  - # 4
    frequency:    2.8502789846
  - # 5
    frequency:    3.1811631755
  - # 6
    frequency:    4.7710110604

- q-position: [    0.0933333,    0.0933333,    0.0000000 ]
  distance:    0.0581214
  band:
  - # 1
    frequency:    1.0600714917
  - # 2
    frequency:    1.4183470486
  - # 3
    frequency:    2.2395013352
  - # 4
    frequency:    2.9705326523
  - # 5
    frequency:    3.3061463559
  - # 6
    frequency:    4.7796919371

- q-position: [    0.1000000,    0.1000000,    0.0000000 ]
  distance:    0.0622729
  band:
  - # 1
    frequency:    1.1327572450
  - # 2
    frequency:    1.5167678485
  - # 3
    frequency:    2.3581171573
  - # 4
    frequency:    3.0965912212
  - # 5
    frequency:    3.4301968142
  - # 6
    frequency:    4.7874754861

- q-position: [    0.1066667,    0.1066667,    0.0000000 ]
  distance:    0.0664245
  band:
  - # 1
    frequency:    1.2049667277
  - # 2
    frequency:    1.6139050488
  - # 3
    frequency:    2.4706199046
  - # 4
    frequency:    3.2271855694
  - # 5
    frequency:    3.5525526767
  - # 6
    frequency:    4.7941131354

- q-position: [    0.1133333,    0.1133333,    0.0000000 ]
  distance:    0.0705760
  band:
  - # 1
    frequency:    1.2767129919
  - # 2
    frequency:    1.7096906146
  - # 3
    frequency:    2.5777003365
  - # 4
    frequency:    3.3609990203
  - # 5
    frequency:    3.6725359435
  - # 6
    frequency:    4.7993619206

- q-position: [    0.1200000,    0.1200000,    0.0000000 ]
  distance:    0.0747275
  band:
  - # 1
    frequency:    1.3480152759
  - # 2
    frequency:    1.8040808565
  - # 3
    frequency:    2.6800240063
  - # 4
    frequency:    3.4967778290
  - # 5
    frequency:    3.7895411311
  - # 6
    frequency:    4.8029870822

- q-position: [    0.1266667,    0.1266667,    0.0000000 ]
  distance:    0.0788790
  band:
  - # 1
    frequency:    1.4188986613
  - # 2
    frequency:    1.8970542114
  - # 3
    frequency:    2.7781617610
  - # 4
    frequency:    3.6333986888
  - # 5
    frequency:    3.9030259073
  - # 6
    frequency:    4.8047644381

- q-position: [    0.1333333,    0.1333333,    0.0000000 ]
  distance:    0.0830306
  band:
  - # 1
    frequency:    1.4893936202
  - # 2
    frequency:    1.9886091659
  - # 3
    frequency:    2.8725624044
  - # 4
    frequency:    3.7698940948
  - # 5
    frequency:    4.0125034123
  - # 6
    frequency:    4.8044825220

- q-position: [    0.1400000,    0.1400000,    0.0000000 ]
  distance:    0.0871821
  band:
  - # 1
    frequency:    1.5595354578
  - # 2
    frequency:    2.0787623092
  - # 3
    frequency:    2.9635540673
  - # 4
    frequency:    3.9054491351
  - # 5
    frequency:    4.1175359787
  - # 6
    frequency:    4.8019444848

- q-position: [    0.1466667,    0.1466667,    0.0000000 ]
  distance:    0.0913336
  band:
  - # 1
    frequency:    1.6293636527
  - # 2
    frequency:    2.1675464865
  - # 3
    frequency:    3.0513601322
  - # 4
    frequency:    4.0393839375
  - # 5
    frequency:    4.2177299971
  - # 6
    frequency:    4.7969697587

- q-position: [    0.1533333,    0.1533333,    0.0000000 ]
  distance:    0.0954852
  band:
  - # 1
    frequency:    1.6989211033
  - # 2
    frequency:    2.2550090131
  - # 3
    frequency:    3.1361198990
  - # 4
    frequency:    4.1711316201
  - # 5
    frequency:    4.3127317123
  - # 6
    frequency:    4.7893954908

- q-position: [    0.1600000,    0.1600000,    0.0000000 ]
  distance:    0.0996367
  band:
  - # 1
    frequency:    1.7682532875
  - # 2
    frequency:    2.3412099135
  - # 3
    frequency:    3.2179087150
  - # 4
    frequency:    4.3002170379
  - # 5
    frequency:    4.4022237746
  - # 6
    frequency:    4.7790777521

- q-position: [    0.1666667,    0.1666667,    0.0000000 ]
  distance:    0.1037882
  band:
  - # 1
    frequency:    1.8374073486
  - # 2
    frequency:    2.4262201542
  - # 3
    frequency:    3.2967553789
  - # 4
    frequency:    4.4262385131
  - # 5
    frequency:    4.4859224021
  - # 6
    frequency:    4.7658925320

- q-position: [    0.1733333,    0.1733333,    0.0000000 ]
  distance:    0.1079397
  band:
  - # 1
    frequency:    1.9064311178
  - # 2
    frequency:    2.5101198482
  - # 3
    frequency:    3.3726563100
  - # 4
    frequency:    4.5488530483
  - # 5
    frequency:    4.5635750352
  - # 6
    frequency:    4.7497365289

- q-position: [    0.1800000,    0.1800000,    0.0000000 ]
  distance:    0.1120913
  band:
  - # 1
    frequency:    1.9753720899
  - # 2
    frequency:    2.5929964143
  - # 3
    frequency:    3.4455867263
  - # 4
    frequency:    4.6349583920
  - # 5
    frequency:    4.6677647580
  - # 6
    frequency:    4.7305277481

- q-position: [    0.1866667,    0.1866667,    0.0000000 ]
  distance:    0.1162428
  band:
  - # 1
    frequency:    2.0442763669
  - # 2
    frequency:    2.6749426863
  - # 3
    frequency:    3.5155093351
  - # 4
    frequency:    4.6998768486
  - # 5
    frequency:    4.7082059177
  - # 6
    frequency:    4.7827159955

- q-position: [    0.1933333,    0.1933333,    0.0000000 ]
  distance:    0.1203943
  band:
  - # 1
    frequency:    2.1131875873
  - # 2
    frequency:    2.7560549711
  - # 3
    frequency:    3.5823810573
  - # 4
    frequency:    4.6827327350
  - # 5
    frequency:    4.7581610838
  - # 6
    frequency:    4.8934806291

- q-position: [    0.2000000,    0.2000000,    0.0000000 ]
  distance:    0.1245459
  band:
  - # 1
    frequency:    2.1821458591
  - # 2
    frequency:    2.8364310628
  - # 3
    frequency:    3.6461582453
  - # 4
    frequency:    4.6540919528
  - # 5
    frequency:    4.8096669438
  - # 6
    frequency:    4.9998589857

- q-position: [    0.2066667,    0.2066667,    0.0000000 ]
  distance:    0.1286974
  band:
  - # 1
    frequency:    2.2511867138
  - # 2
    frequency:    2.9161682236
  - # 3
    frequency:    3.7068007584
  - # 4
    frequency:    4.6222893172
  - # 5
    frequency:    4.8542744893
  - # 6
    frequency:    5.1016740728

- q-position: [    0.2133333,    0.2133333,    0.0000000 ]
  distance:    0.1328489
  band:
  - # 1
    frequency:    2.3203401013
  - # 2
    frequency:    2.9953611483
  - # 3
    frequency:    3.7642751787
  - # 4
    frequency:    4.5873523651
  - # 5
    frequency:    4.8918871997
  - # 6
    frequency:    5.1987687738

- q-position: [    0.2200000,    0.2200000,    0.0000000 ]
  distance:    0.1370004
  band:
  - # 1
    frequency:    2.3896294403
  - # 2
    frequency:    3.0740999278
  - # 3
    frequency:    3.8185573751
  - # 4
    frequency:    4.5493300906
  - # 5
    frequency:    4.9224313163
  - # 6
    frequency:    5.2910037851

- q-position: [    0.2266667,    0.2266667,    0.0000000 ]
  distance:    0.1411520
  band:
  - # 1
    frequency:    2.4590707437
  - # 2
    frequency:    3.1524680282
  - # 3
    frequency:    3.8696345722
  - # 4
    frequency:    4.5082924891
  - # 5
    frequency:    4.9458553172
  - # 6
    frequency:    5.3782561186

- q-position: [    0.2333333,    0.2333333,    0.0000000 ]
  distance:    0.1453035
  band:
  - # 1
    frequency:    2.5286718309
  - # 2
    frequency:    3.2305402979
  - # 3
    frequency:    3.9175070321
  - # 4
    frequency:    4.4643299847
  - # 5
    frequency:    4.9621295243
  - # 6
    frequency:    5.4604180386

- q-position: [    0.2400000,    0.2400000,    0.0000000 ]
  distance:    0.1494550
  band:
  - # 1
    frequency:    2.5984316418
  - # 2
    frequency:    3.3083810062
  - # 3
    frequency:    3.9621894300
  - # 4
    frequency:    4.4175527485
  - # 5
    frequency:    4.9712458593
  - # 6
    frequency:    5.5373963310

- q-position: [    0.2466667,    0.2466667,    0.0000000 ]
  distance:    0.1536066
  band:
  - # 1
    frequency:    2.6683396612
  - # 2
    frequency:    3.3860418983
  - # 3
    frequency:    4.0037119789
  - # 4
    frequency:    4.3680899133
  - # 5
    frequency:    4.9732177797
  - # 6
    frequency:    5.6091118319

- q-position: [    0.2533333,    0.2533333,    0.0000000 ]
  distance:    0.1577581
  band:
  - # 1
    frequency:    2.7383754643
  - # 2
    frequency:    3.4635602261
  - # 3
    frequency:    4.0421213390
  - # 4
    frequency:    4.3160886889
  - # 5
    frequency:    4.9680804629
  - # 6
    frequency:    5.6754991545

- q-position: [    0.2600000,    0.2600000,    0.0000000 ]
  distance:    0.1619096
  band:
  - # 1
    frequency:    2.8085083863
  - # 2
    frequency:    3.5409566592
  - # 3
    frequency:    4.0774813371
  - # 4
    frequency:    4.2617133833
  - # 5
    frequency:    4.9558913507
  - # 6
    frequency:    5.7365065728

- q-position: [    0.2666667,    0.2666667,    0.0000000 ]
  distance:    0.1660611
  band:
  - # 1
    frequency:    2.8786973204
  - # 2
    frequency:    3.6182328826
  - # 3
    frequency:    4.1098735082
  - # 4
    frequency:    4.2051443336
  - # 5
    frequency:    4.9367312704
  - # 6
    frequency:    5.7920960250

- q-position: [    0.2733333,    0.2733333,    0.0000000 ]
  distance:    0.1702127
  band:
  - # 1
    frequency:    2.9488906454
  - # 2
    frequency:    3.6953685001
  - # 3
    frequency:    4.1393974652
  - # 4
    frequency:    4.1465767496
  - # 5
    frequency:    4.9107065294
  - # 6
    frequency:    5.8422432110

- q-position: [    0.2800000,    0.2800000,    0.0000000 ]
  distance:    0.1743642
  band:
  - # 1
    frequency:    3.0190262799
  - # 2
    frequency:    3.7723164655
  - # 3
    frequency:    4.0862194730
  - # 4
    frequency:    4.1661710960
  - # 5
    frequency:    4.8779527782
  - # 6
    frequency:    5.8869377605

- q-position: [    0.2866667,    0.2866667,    0.0000000 ]
  distance:    0.1785157
  band:
  - # 1
    frequency:    3.0890318596
  - # 2
    frequency:    3.8489953828
  - # 3
    frequency:    4.0242936559
  - # 4
    frequency:    4.1903305801
  - # 5
    frequency:    4.8386423129
  - # 6
    frequency:    5.9261834567

- q-position: [    0.2933333,    0.2933333,    0.0000000 ]
  distance:    0.1826673
  band:
  - # 1
    frequency:    3.1588250326
  - # 2
    frequency:    3.9252748636
  - # 3
    frequency:    3.9610313610
  - # 4
    frequency:    4.2120302165
  - # 5
    frequency:    4.7929986377
  - # 6
    frequency:    5.9599984991

- q-position: [    0.3000000,    0.3000000,    0.0000000 ]
  distance:    0.1868188
  band:
  - # 1
    frequency:    3.2283138640
  - # 2
    frequency:    3.8966740863
  - # 3
    frequency:    4.0009443140
  - # 4
    frequency:    4.2314420470
  - # 5
    frequency:    4.7413279261
  - # 6
    frequency:    5.9884157953

- q-position: [    0.3066667,    0.3066667,    0.0000000 ]
  distance:    0.1909703
  band:
  - # 1
    frequency:    3.2973973428
  - # 2
    frequency:    3.8314712183
  - # 3
    frequency:    4.0756375889
  - # 4
    frequency:    4.2487552586
  - # 5
    frequency:    4.6840949468
  - # 6
    frequency:    6.0114832734

- q-position: [    0.3133333,    0.3133333,    0.0000000 ]
  distance:    0.1951218
  band:
  - # 1
    frequency:    3.3659659795
  - # 2
    frequency:    3.7656784175
  - # 3
    frequency:    4.1486205867
  - # 4
    frequency:    4.2641753460
  - # 5
    frequency:    4.6221363900
  - # 6
    frequency:    6.0292642063

- q-position: [    0.3200000,    0.3200000,    0.0000000 ]
  distance:    0.1992734
  band:
  - # 1
    frequency:    3.4339024866
  - # 2
    frequency:    3.6995559413
  - # 3
    frequency:    4.2180521051
  - # 4
    frequency:    4.2779230130
  - # 5
    frequency:    4.5574012792
  - # 6
    frequency:    6.0418375440

- q-position: [    0.3266667,    0.3266667,    0.0000000 ]
  distance:    0.2034249
  band:
  - # 1
    frequency:    3.5010825286
  - # 2
    frequency:    3.6333669112
  - # 3
    frequency:    4.2776059443
  - # 4
    frequency:    4.2902327916
  - # 5
    frequency:    4.4963304933
  - # 6
    frequency:    6.0492982506

- q-position: [    0.3333333,    0.3333333,    0.0000000 ]
  distance:    0.2075764
  band:
  - # 1
    frequency:    3.5673755336
  - # 2
    frequency:    3.5673755336
  - # 3
    frequency:    4.3013513556
  - # 4
    frequency:    4.3013513556
  - # 5
    frequency:    4.4649783131
  - # 6
    frequency:    6.0517576440

- q-position: [    0.3333333,    0.3333333,    0.0000000 ]
  distance:    0.2075764
  band:
  - # 1
    frequency:    3.5673755336
  - # 2
    frequency:    3.5673755336
  - # 3
    frequency:    4.3013513556
  - # 4
    frequency:    4.3013513556
  - # 5
    frequency:    4.4649783131
  - # 6
    frequency:    6.0517576440

- q-position: [    0.3366667,    0.3266667,    0.0000000 ]
  distance:    0.2096522
  band:
  - # 1
    frequency:    3.5345363792
  - # 2
    frequency:    3.6001470988
  - # 3
    frequency:    4.2867446547
  - # 4
    frequency:    4.3065438500
  - # 5
    frequency:    4.4735395491
  - # 6
    frequency:    6.0511511916

- q-position: [    0.3400000,    0.3200000,    0.0000000 ]
  distance:    0.2117280
  band:
  - # 1
    frequency:    3.5018452836
  - # 2
    frequency:    3.6326455526
  - # 3
    frequency:    4.2579697897
  - # 4
    frequency:    4.3115355099
  - # 5
    frequency:    4.4947980569
  - # 6
    frequency:    6.0493437408

- q-position: [    0.3433333,    0.3133333,    0.0000000 ]
  distance:    0.2138037
  band:
  - # 1
    frequency:    3.4693347654
  - # 2
    frequency:    3.6648532089
  - # 3
    frequency:    4.2212332367
  - # 4
    frequency:    4.3163596322
  - # 5
    frequency:    4.5225664214
  - # 6
    frequency:    6.0463539607

- q-position: [    0.3466667,    0.3066667,    0.0000000 ]
  distance:    0.2158795
  band:
  - # 1
    frequency:    3.4370370675
  - # 2
    frequency:    3.6967521596
  - # 3
    frequency:    4.1799906184
  - # 4
    frequency:    4.3210498326
  - # 5
    frequency:    4.5534091566
  - # 6
    frequency:    6.0422016092

- q-position: [    0.3500000,    0.3000000,    0.0000000 ]
  distance:    0.2179553
  band:
  - # 1
    frequency:    3.4049840994
  - # 2
    frequency:    3.7283243042
  - # 3
    frequency:    4.1358638495
  - # 4
    frequency:    4.3256399519
  - # 5
    frequency:    4.5857256739
  - # 6
    frequency:    6.0369075448

- q-position: [    0.3533333,    0.2933333,    0.0000000 ]
  distance:    0.2200310
  band:
  - # 1
    frequency:    3.3732073806
  - # 2
    frequency:    3.7595513795
  - # 3
    frequency:    4.0896525545
  - # 4
    frequency:    4.3301639560
  - # 5
    frequency:    4.6187389834
  - # 6
    frequency:    6.0304937395

- q-position: [    0.3566667,    0.2866667,    0.0000000 ]
  distance:    0.2221068
  band:
  - # 1
    frequency:    3.3417379840
  - # 2
    frequency:    3.7904149896
  - # 3
    frequency:    4.0417936657
  - # 4
    frequency:    4.3346558305
  - # 5
    frequency:    4.6520362263
  - # 6
    frequency:    6.0229832923

- q-position: [    0.3600000,    0.2800000,    0.0000000 ]
  distance:    0.2241825
  band:
  - # 1
    frequency:    3.3106064809
  - # 2
    frequency:    3.8208966360
  - # 3
    frequency:    3.9925535822
  - # 4
    frequency:    4.3391494684
  - # 5
    frequency:    4.6853766531
  - # 6
    frequency:    6.0144004435

- q-position: [    0.3633333,    0.2733333,    0.0000000 ]
  distance:    0.2262583
  band:
  - # 1
    frequency:    3.2798428861
  - # 2
    frequency:    3.8509777474
  - # 3
    frequency:    3.9421126556
  - # 4
    frequency:    4.3436785514
  - # 5
    frequency:    4.7186072850
  - # 6
    frequency:    6.0047705904

- q-position: [    0.3666667,    0.2666667,    0.0000000 ]
  distance:    0.2283341
  band:
  - # 1
    frequency:    3.2494766055
  - # 2
    frequency:    3.8806397100
  - # 3
    frequency:    3.8906051836
  - # 4
    frequency:    4.3482764259
  - # 5
    frequency:    4.7516230788
  - # 6
    frequency:    5.9941203042

- q-position: [    0.3700000,    0.2600000,    0.0000000 ]
  distance:    0.2304098
  band:
  - # 1
    frequency:    3.2195363843
  - # 2
    frequency:    3.8381397508
  - # 3
    frequency:    3.9098638974
  - # 4
    frequency:    4.3529759713
  - # 5
    frequency:    4.7843467530
  - # 6
    frequency:    5.9824773493

- q-position: [    0.3733333,    0.2533333,    0.0000000 ]
  distance:    0.2324856
  band:
  - # 1
    frequency:    3.1900502575
  - # 2
    frequency:    3.7848102677
  - # 3
    frequency:    3.9386317004
  - # 4
    frequency:    4.3578094623
  - # 5
    frequency:    4.8167179284
  - # 6
    frequency:    5.9698707041

- q-position: [    0.3766667,    0.2466667,    0.0000000 ]
  distance:    0.2345614
  band:
  - # 1
    frequency:    3.1610455030
  - # 2
    frequency:    3.7307023184
  - # 3
    frequency:    3.9669245565
  - # 4
    frequency:    4.3628084247
  - # 5
    frequency:    4.8486869713
  - # 6
    frequency:    5.9563305854

- q-position: [    0.3800000,    0.2400000,    0.0000000 ]
  distance:    0.2366371
  band:
  - # 1
    frequency:    3.1325485965
  - # 2
    frequency:    3.6758970119
  - # 3
    frequency:    3.9947239794
  - # 4
    frequency:    4.3680034833
  - # 5
    frequency:    4.8802113454
  - # 6
    frequency:    5.9418884755

- q-position: [    0.3833333,    0.2333333,    0.0000000 ]
  distance:    0.2387129
  band:
  - # 1
    frequency:    3.1045851696
  - # 2
    frequency:    3.6204734391
  - # 3
    frequency:    4.0220115881
  - # 4
    frequency:    4.3734242033
  - # 5
    frequency:    4.9112533704
  - # 6
    frequency:    5.9265771539

- q-position: [    0.3866667,    0.2266667,    0.0000000 ]
  distance:    0.2407887
  band:
  - # 1
    frequency:    3.0771799707
  - # 2
    frequency:    3.5645103228
  - # 3
    frequency:    4.0487691357
  - # 4
    frequency:    4.3790989241
  - # 5
    frequency:    4.9417788021
  - # 6
    frequency:    5.9104307340

- q-position: [    0.3900000,    0.2200000,    0.0000000 ]
  distance:    0.2428644
  band:
  - # 1
    frequency:    3.0503568298
  - # 2
    frequency:    3.5080871823
  - # 3
    frequency:    4.0749785375
  - # 4
    frequency:    4.3850545840
  - # 5
    frequency:    4.9717559105
  - # 6
    frequency:    5.8934847053

- q-position: [    0.3933333,    0.2133333,    0.0000000 ]
  distance:    0.2449402
  band:
  - # 1
    frequency:    3.0241386261
  - # 2
    frequency:    3.4512852005
  - # 3
    frequency:    4.1006218991
  - # 4
    frequency:    4.3913165369
  - # 5
    frequency:    5.0011548690
  - # 6
    frequency:    5.8757759843

- q-position: [    0.3966667,    0.2066667,    0.0000000 ]
  distance:    0.2470160
  band:
  - # 1
    frequency:    2.9985472610
  - # 2
    frequency:    3.3941879047
  - # 3
    frequency:    4.1256815441
  - # 4
    frequency:    4.3979083582
  - # 5
    frequency:    5.0299473449
  - # 6
    frequency:    5.8573429728

- q-position: [    0.4000000,    0.2000000,    0.0000000 ]
  distance:    0.2490917
  band:
  - # 1
    frequency:    2.9736036335
  - # 2
    frequency:    3.3368817274
  - # 3
    frequency:    4.1501400406
  - # 4
    frequency:    4.4048516404
  - # 5
    frequency:    5.0581062217
  - # 6
    frequency:    5.8382256280

- q-position: [    0.4033333,    0.1933333,    0.0000000 ]
  distance:    0.2511675
  band:
  - # 1
    frequency:    2.9493276219
  - # 2
    frequency:    3.2794564913
  - # 3
    frequency:    4.1739802281
  - # 4
    frequency:    4.4121657752
  - # 5
    frequency:    5.0856054101
  - # 6
    frequency:    5.8184655457

- q-position: [    0.4066667,    0.1866667,    0.0000000 ]
  distance:    0.2532432
  band:
  - # 1
    frequency:    2.9257380690
  - # 2
    frequency:    3.2220058434
  - # 3
    frequency:    4.1971852432
  - # 4
    frequency:    4.4198677212
  - # 5
    frequency:    5.1124197211
  - # 6
    frequency:    5.7981060584

- q-position: [    0.4100000,    0.1800000,    0.0000000 ]
  distance:    0.2553190
  band:
  - # 1
    frequency:    2.9028527725
  - # 2
    frequency:    3.1646276547
  - # 3
    frequency:    4.2197385447
  - # 4
    frequency:    4.4279717533
  - # 5
    frequency:    5.1385247807
  - # 6
    frequency:    5.7771923534

- q-position: [    0.4133333,    0.1733333,    0.0000000 ]
  distance:    0.2573948
  band:
  - # 1
    frequency:    2.8806884809
  - # 2
    frequency:    3.1074243961
  - # 3
    frequency:    4.2416239385
  - # 4
    frequency:    4.4364891925
  - # 5
    frequency:    5.1638969756
  - # 6
    frequency:    5.7557716139

- q-position: [    0.4166667,    0.1666667,    0.0000000 ]
  distance:    0.2594705
  band:
  - # 1
    frequency:    2.8592608941
  - # 2
    frequency:    3.0505034922
  - # 3
    frequency:    4.2628256017
  - # 4
    frequency:    4.4454281094
  - # 5
    frequency:    5.1885134200
  - # 6
    frequency:    5.7338931870

- q-position: [    0.4200000,    0.1600000,    0.0000000 ]
  distance:    0.2615463
  band:
  - # 1
    frequency:    2.8385846688
  - # 2
    frequency:    2.9939776552
  - # 3
    frequency:    4.2833281054
  - # 4
    frequency:    4.4547929983
  - # 5
    frequency:    5.2123519376
  - # 6
    frequency:    5.7116087863

- q-position: [    0.4233333,    0.1533333,    0.0000000 ]
  distance:    0.2636221
  band:
  - # 1
    frequency:    2.8186734304
  - # 2
    frequency:    2.9379651944
  - # 3
    frequency:    4.3031164381
  - # 4
    frequency:    4.4645844144
  - # 5
    frequency:    5.2353910557
  - # 6
    frequency:    5.6889727345

- q-position: [    0.4266667,    0.1466667,    0.0000000 ]
  distance:    0.2656978
  band:
  - # 1
    frequency:    2.7995397887
  - # 2
    frequency:    2.8825902947
  - # 3
    frequency:    4.3221760267
  - # 4
    frequency:    4.4747985673
  - # 5
    frequency:    5.2576100066
  - # 6
    frequency:    5.6660422546

- q-position: [    0.4300000,    0.1400000,    0.0000000 ]
  distance:    0.2677736
  band:
  - # 1
    frequency:    2.7811953594
  - # 2
    frequency:    2.8279832545
  - # 3
    frequency:    4.3404927585
  - # 4
    frequency:    4.4854268605
  - # 5
    frequency:    5.2789887354
  - # 6
    frequency:    5.6428778199

- q-position: [    0.4333333,    0.1333333,    0.0000000 ]
  distance:    0.2698494
  band:
  - # 1
    frequency:    2.7636507900
  - # 2
    frequency:    2.7742806680
  - # 3
    frequency:    4.3580530009
  - # 4
    frequency:    4.4964553661
  - # 5
    frequency:    5.2995079112
  - # 6
    frequency:    5.6195435733

- q-position: [    0.4366667,    0.1266667,    0.0000000 ]
  distance:    0.2719251
  band:
  - # 1
    frequency:    2.7216255371
  - # 2
    frequency:    2.7469157907
  - # 3
    frequency:    4.3748436214
  - # 4
    frequency:    4.5078642235
  - # 5
    frequency:    5.3191489427
  - # 6
    frequency:    5.5961078300

- q-position: [    0.4400000,    0.1200000,    0.0000000 ]
  distance:    0.2740009
  band:
  - # 1
    frequency:    2.6701672898
  - # 2
    frequency:    2.7309991692
  - # 3
    frequency:    4.3908520061
  - # 4
    frequency:    4.5196269450
  - # 5
    frequency:    5.3378939940
  - # 6
    frequency:    5.5726436775

- q-position: [    0.4433333,    0.1133333,    0.0000000 ]
  distance:    0.2760767
  band:
  - # 1
    frequency:    2.6200616832
  - # 2
    frequency:    2.7159088696
  - # 3
    frequency:    4.4060660780
  - # 4
    frequency:    4.5317096148
  - # 5
    frequency:    5.3557260031
  - # 6
    frequency:    5.5492296896

- q-position: [    0.4466667,    0.1066667,    0.0000000 ]
  distance:    0.2781524
  band:
  - # 1
    frequency:    2.5714705605
  - # 2
    frequency:    2.7016520148
  - # 3
    frequency:    4.4204743137
  - # 4
    frequency:    4.5440699646
  - # 5
    frequency:    5.3726287001
  - # 6
    frequency:    5.5259507693

- q-position: [    0.4500000,    0.1000000,    0.0000000 ]
  distance:    0.2802282
  band:
  - # 1
    frequency:    2.5245614349
  - # 2
    frequency:    2.6882349516
  - # 3
    frequency:    4.4340657600
  - # 4
    frequency:    4.5566563121
  - # 5
    frequency:    5.3885866265
  - # 6
    frequency:    5.5028991354

- q-position: [    0.4533333,    0.0933333,    0.0000000 ]
  distance:    0.2823039
  band:
  - # 1
    frequency:    2.4795068652
  - # 2
    frequency:    2.6756632981
  - # 3
    frequency:    4.4468300493
  - # 4
    frequency:    4.5694063541
  - # 5
    frequency:    5.4035851537
  - # 6
    frequency:    5.4801754611

- q-position: [    0.4566667,    0.0866667,    0.0000000 ]
  distance:    0.2843797
  band:
  - # 1
    frequency:    2.4364835921
  - # 2
    frequency:    2.6639419939
  - # 3
    frequency:    4.4587574139
  - # 4
    frequency:    4.5822458173
  - # 5
    frequency:    5.4176105014
  - # 6