36
config_type=Zr_hcp_aimd300K_3x3x2 degauss=0.20000000 ecutwfc=300.00000000 kpoints="3       3       3" energy=-306.42499040 config_name=Zr_hcp_aimd300K_1_istep0 cutoff=5.00000000 nneightol=1.20000000 pbc="T T T" Lattice="9.63500533       0.00000000       0.00000000      -4.81750267       8.34415939       0.00000000       0.00000000       0.00000000      10.40488530" Properties=species:S:1:pos:R:3:force:R:3:Z:I:1:map_shift:I:3:n_neighb:I:1
Zr              0.00000000      0.00000000      0.00000000      0.00000001     -0.00000000     -0.00000008      40       0       0       0      18
Zr              3.21166841      0.00000000      0.00000000      0.00000024      0.00000011     -0.00000008      40       0       0       0      18
Zr              6.42333692      0.00000000      0.00000000     -0.00000019     -0.00000007     -0.00000008      40      -1       0       0      18
Zr             -1.60583421      2.78138644      0.00000000     -0.00000001      0.00000014     -0.00000008      40       0       0       0      18
Zr              1.60583420      2.78138644      0.00000000      0.00000022      0.00000026     -0.00000008      40       0       0       0      18
Zr              4.81750271      2.78138644      0.00000000     -0.00000020      0.00000008     -0.00000008      40      -1       0       0      18
Zr             -3.21166846      5.56277295      0.00000000     -0.00000000     -0.00000022     -0.00000008      40       0      -1       0      18
Zr             -0.00000005      5.56277295      0.00000000      0.00000023     -0.00000009     -0.00000008      40       0      -1       0      18
Zr              3.21166846      5.56277295      0.00000000     -0.00000018     -0.00000028     -0.00000008      40      -1      -1       0      18
Zr              0.00000000      0.00000000      5.20244263      0.00000001     -0.00000000      0.00000004      40       0       0       0      18
Zr              3.21166841      0.00000000      5.20244263      0.00000024      0.00000011      0.00000004      40       0       0       0      18
Zr              6.42333692      0.00000000      5.20244263     -0.00000019     -0.00000007      0.00000004      40      -1       0       0      18
Zr             -1.60583421      2.78138644      5.20244263     -0.00000001      0.00000014      0.00000004      40       0       0       0      18
Zr              1.60583420      2.78138644      5.20244263      0.00000022      0.00000026      0.00000004      40       0       0       0      18
Zr              4.81750271      2.78138644      5.20244263     -0.00000020      0.00000008      0.00000004      40      -1       0       0      18
Zr             -3.21166846      5.56277295      5.20244263     -0.00000000     -0.00000021      0.00000004      40       0      -1       0      18
Zr             -0.00000005      5.56277295      5.20244263      0.00000023     -0.00000009      0.00000004      40       0      -1       0      18
Zr              3.21166846      5.56277295      5.20244263     -0.00000018     -0.00000028      0.00000004      40      -1      -1       0      18
Zr              1.60583421      0.92712881      2.60122132      0.00000013      0.00000010     -0.00000004      40       0       0       0      18
Zr              4.81750271      0.92712881      2.60122132     -0.00000020     -0.00000009     -0.00000004      40      -1       0       0      18
Zr              8.02917112      0.92712881      2.60122132      0.00000002      0.00000004     -0.00000004      40      -1       0       0      18
Zr             -0.00000000      3.70851525      2.60122132      0.00000015      0.00000030     -0.00000004      40       0       0       0      18
Zr              3.21166851      3.70851525      2.60122132     -0.00000026      0.00000013     -0.00000004      40      -1       0       0      18
Zr              6.42333692      3.70851525      2.60122132     -0.00000004      0.00000025     -0.00000004      40      -1       0       0      18
Zr             -1.60583426      6.48990177      2.60122132      0.00000023     -0.00000014     -0.00000004      40       0      -1       0      18
Zr              1.60583425      6.48990177      2.60122132     -0.00000019     -0.00000032     -0.00000004      40      -1      -1       0      18
Zr              4.81750266      6.48990177      2.60122132      0.00000005     -0.00000020     -0.00000004      40      -1      -1       0      18
Zr              1.60583421      0.92712881      7.80366395      0.00000013      0.00000010      0.00000008      40       0       0      -1      18
Zr              4.81750271      0.92712881      7.80366395     -0.00000020     -0.00000009      0.00000008      40      -1       0      -1      18
Zr              8.02917112      0.92712881      7.80366395      0.00000002      0.00000004      0.00000008      40      -1       0      -1      18
Zr             -0.00000000      3.70851525      7.80366395      0.00000015      0.00000030      0.00000008      40       0       0      -1      18
Zr              3.21166851      3.70851525      7.80366395     -0.00000026      0.00000014      0.00000008      40      -1       0      -1      18
Zr              6.42333692      3.70851525      7.80366395     -0.00000004      0.00000025      0.00000008      40      -1       0      -1      18
Zr             -1.60583426      6.48990177      7.80366395      0.00000023     -0.00000014      0.00000008      40       0      -1      -1      18
Zr              1.60583425      6.48990177      7.80366395     -0.00000019     -0.00000032      0.00000008      40      -1      -1      -1      18
Zr              4.81750266      6.48990177      7.80366395      0.00000005     -0.00000020      0.00000008      40      -1      -1      -1      18
36
config_type=Zr_hcp_aimd300K_3x3x2 degauss=0.20000000 ecutwfc=300.00000000 kpoints="3       3       3" energy=-306.40439143 config_name=Zr_hcp_aimd300K_1_istep5 cutoff=5.00000000 nneightol=1.20000000 pbc="T T T" Lattice="9.63500533       0.00000000       0.00000000      -4.81750267       8.34415939       0.00000000       0.00000000       0.00000000      10.40488530" Properties=species:S:1:pos:R:3:force:R:3:Z:I:1:map_shift:I:3:n_neighb:I:1
Zr              0.00141471      0.00720034     10.39860758     -0.02319771     -0.04981662      0.02411183      40       0       0      -1      18
Zr             -1.59372874      8.33740396     10.40463627     -0.06503273      0.07442040      0.00543591      40       0      -1      -1      18
Zr              6.41296903      0.01325161      0.00617478      0.07683122     -0.05813226     -0.03515457      40      -1       0       0      18
Zr             -1.60660867      2.78854622      0.00454152      0.01147167     -0.03114267     -0.02336860      40       0       0       0      18
Zr              1.61052452      2.77534927     10.40144187     -0.00094205      0.01640075      0.02528655      40       0       0      -1      18
Zr              4.82738852      2.79066314     10.39962008     -0.06052167     -0.03745895      0.02621403      40      -1       0      -1      18
Zr             -3.20685766      5.56714838      0.00065176     -0.03781450      0.01417948      0.00418345      40       0      -1       0      18
Zr             -0.01141233      5.55504259      0.00454995      0.04464157      0.04277218     -0.05614191      40       0      -1       0      18
Zr              3.20315429      5.55987486     10.40287514      0.04546478      0.02854892      0.04152930      40      -1      -1      -1      18
Zr              4.81069948      8.32030077      5.20347677      0.01103744      0.11289634      0.02611006      40      -1      -1      -1      18
Zr             -1.60729941      8.33882005      5.20733563      0.04533885      0.03596628     -0.03399703      40       0      -1      -1      18
Zr              6.43466937      0.00607663      5.20092185     -0.05022742     -0.11566110      0.05401891      40      -1       0       0      18
Zr             -1.59916900      2.77316677      5.19520301      0.00183102      0.05499386      0.04242639      40       0       0       0      18
Zr              1.61310155      2.77740719      5.20154937     -0.04228705     -0.03774295     -0.00990198      40       0       0       0      18
Zr              4.82711228      2.77530171      5.19962904     -0.02479738      0.02996082      0.01222190      40      -1       0       0      18
Zr             -3.21868814      5.57978920      5.21265450      0.05059330     -0.14595622     -0.08285651      40       0      -1      -1      18
Zr              0.00177028      5.55619575      5.18038854     -0.00952008      0.05373728      0.11916990      40       0      -1       0      18
Zr              3.21130030      5.54751983      5.21290485     -0.00799269      0.05816241     -0.07435404      40      -1      -1      -1      18
Zr              1.59267606      0.91965979      2.60344640      0.04257051      0.06699269     -0.00875559      40       0       0       0      18
Zr              4.82996222      0.91199201      2.61062098     -0.11929785      0.09745994     -0.03363483      40      -1       0       0      18
Zr              8.01745457      0.92199281      2.60336753      0.08478786      0.04162213     -0.03337832      40      -1       0       0      18
Zr             -0.00558469      3.71638938      2.60043908      0.03218802     -0.06007786     -0.01799817      40       0       0       0      18
Zr              3.21255541      3.69811859      2.59989282     -0.01256267      0.01914786     -0.00611146      40      -1       0       0      18
Zr              6.41641898      3.71815809      2.59241035      0.03612788     -0.02051664      0.08424429      40      -1       0       0      18
Zr             -1.62330561      6.50119292      2.59413736      0.09034070     -0.06432887      0.04433173      40       0      -1       0      18
Zr              1.61049244      6.49722468      2.58815465     -0.01571739     -0.05275909      0.08834248      40      -1      -1       0      18
Zr              4.82288082      6.49300463      2.60501254     -0.10598478     -0.04246183     -0.04513049      40      -1      -1       0      18
Zr              1.60972578      0.93043210      7.80164644     -0.01336730     -0.02590618      0.00025187      40       0       0      -1      18
Zr              4.82105851      0.92858470      7.80787803     -0.01957701      0.04080412     -0.02135183      40      -1       0      -1      18
Zr              8.02574636      0.93001456      7.80736351      0.01872743      0.01498306     -0.00083071      40      -1       0      -1      18
Zr              0.00231539      3.70581808      7.80781393      0.01114668      0.04525965     -0.04316055      40       0       0      -1      18
Zr              3.21708617      3.71274106      7.80094286     -0.03849093     -0.04008537      0.02123517      40      -1       0      -1      18
Zr              6.42571156      3.72534659      7.80697967      0.04019801     -0.09699493     -0.05510080      40      -1       0      -1      18
Zr             -1.61120211      6.49112602      7.79616983      0.06802742     -0.00632343      0.02985458      40       0      -1      -1      18
Zr              1.60175185      6.50377335      7.81893249     -0.00476251     -0.06486914     -0.10256974      40      -1      -1      -1      18
Zr              4.82146106      6.47608225      7.80800642     -0.05923063      0.10192596      0.03482877      40      -1      -1      -1      18
36
config_type=Zr_hcp_aimd300K_3x3x2 degauss=0.20000000 ecutwfc=300.00000000 kpoints="3       3       3" energy=-306.34400552 config_name=Zr_hcp_aimd300K_1_istep10 cutoff=5.00000000 nneightol=1.20000000 pbc="T T T" Lattice="9.63500533       0.00000000       0.00000000      -4.81750267       8.34415939       0.00000000       0.00000000       0.00000000      10.40488530" Properties=species:S:1:pos:R:3:force:R:3:Z:I:1:map_shift:I:3:n_neighb:I:1
Zr              0.00277353      0.01428019     10.39237515     -0.04467298     -0.09818727      0.04713528      40       0       0      -1      18
Zr             -1.58178191      8.33083777     10.40440383     -0.13063197      0.14859286      0.00859588      40       0      -1      -1      18
Zr              6.40279114      0.02637071      0.01226674      0.15548191     -0.11370708     -0.07097636      40      -1       0       0      18
Zr             -1.60735842      2.79563651      0.00903061      0.02193360     -0.06313761     -0.04681789      40       0       0       0      18
Zr              1.61521966      2.76934665     10.39806257     -0.00220860      0.03264738      0.04985513      40       0       0      -1      18
Zr              4.83713572      2.79985298     10.39441285     -0.12144401     -0.07090839      0.04929993      40      -1       0      -1      18
Zr             -3.20213867      5.57157070      0.00131487     -0.07548642      0.02823114      0.00586375      40       0      -1       0      18
Zr             -0.02272094      5.54741837      0.00895559      0.09147593      0.08434692     -0.11087291      40       0      -1       0      18
Zr              3.19474197      5.55704753     10.40097417      0.09047982      0.05457644      0.08042468      40      -1      -1      -1      18
Zr              4.80391311      8.29669606      5.20458593      0.01986006      0.22528976      0.05263817      40      -1      -1      -1      18
Zr             -1.60864498      8.33356414      5.21214956      0.08870398      0.07245389     -0.06922592      40       0      -1      -1      18
Zr              6.44589035      0.01185271      5.19953738     -0.09990977     -0.22820400      0.10823588      40      -1       0       0      18
Zr             -1.59248708      2.76507369      5.18805860      0.00449266      0.10668472      0.08308811      40       0       0       0      18
Zr              1.62027024      2.77332364      5.20062791     -0.08261472     -0.07147740     -0.01958158      40       0       0       0      18
Zr              4.83667257      2.76927898      5.19684678     -0.04873283      0.05901077      0.02288108      40      -1       0       0      18
Zr             -3.22558531      5.59644639      5.22266775      0.09900619     -0.29207119     -0.16584729      40       0      -1      -1      18
Zr              0.00352227      5.54974881      5.15860810     -0.02073407      0.10689767      0.23185564      40       0      -1       0      18
Zr              3.21091124      5.53239487      5.22318945     -0.01405982      0.11466748     -0.14726097      40      -1      -1      -1      18
Zr              1.57960401      0.91236073      2.60565754      0.08269217      0.13535622     -0.01749247      40       0       0       0      18
Zr              4.84212256      0.89709484      2.61994584     -0.23653718      0.19299071     -0.06394790      40      -1       0       0      18
Zr              8.00594749      0.91696029      2.60542832      0.16987348      0.08238507     -0.06621925      40      -1       0       0      18
Zr             -0.01108816      3.72410998      2.59960825      0.06394835     -0.12150917     -0.03706650      40       0       0       0      18
Zr              3.21340777      3.68775273      2.59854341     -0.02534752      0.03897767     -0.01119624      40      -1       0       0      18
Zr              6.40958261      3.72776330      2.58380936      0.07184222     -0.04274846      0.16493589      40      -1       0       0      18
Zr             -1.64056229      6.51233187      2.58715318      0.18208802     -0.12954211      0.09221362      40       0      -1       0      18
Zr              1.61511016      6.50441877      2.57530129     -0.03225837     -0.10621911      0.17369849      40      -1      -1       0      18
Zr              4.82797707      6.49599784      2.60868682     -0.21196073     -0.08443293     -0.08888418      40      -1      -1       0      18
Zr              1.61358879      0.93367973      7.79962217     -0.02616377     -0.05088641      0.00140453      40       0       0      -1      18
Zr              4.82456695      0.93015399      7.81204310     -0.03956961      0.07983334     -0.04206886      40      -1       0      -1      18
Zr              8.02236828      0.93295295      7.81107212      0.03692289      0.03085567     -0.00217650      40      -1       0      -1      18
Zr              0.00466792      3.70323264      7.81186279      0.02129184      0.08758916     -0.08358315      40       0       0      -1      18
Zr              3.22240898      3.71686500      7.79827557     -0.07672716     -0.08219234      0.04404842      40      -1       0      -1      18
Zr              6.42820202      3.74195313      7.81014796      0.08070591     -0.19279410     -0.10831543      40      -1       0      -1      18
Zr             -1.61639331      6.49233818      7.78874209      0.13515717     -0.01080926      0.06279107      40       0      -1      -1      18
Zr              1.59764782      6.51749331      7.83395621     -0.00676618     -0.12700568     -0.19742612      40      -1      -1      -1      18
Zr              4.82526188      6.46250981      7.81245358     -0.12013049      0.20444564      0.06999397      40      -1      -1      -1      18
36
config_type=Zr_hcp_aimd300K_3x3x2 degauss=0.20000000 ecutwfc=300.00000000 kpoints="3       3       3" energy=-306.24713731 config_name=Zr_hcp_aimd300K_1_istep15 cutoff=5.00000000 nneightol=1.20000000 pbc="T T T" Lattice="9.63500533       0.00000000       0.00000000      -4.81750267       8.34415939       0.00000000       0.00000000       0.00000000      10.40488530" Properties=species:S:1:pos:R:3:force:R:3:Z:I:1:map_shift:I:3:n_neighb:I:1
Zr              0.00403567      0.02117739     10.38618227     -0.06384061     -0.14429863      0.06957593      40       0       0      -1      18
Zr             -1.57005987      8.32459751     10.40419708     -0.19615223      0.22132552      0.00939041      40       0      -1      -1      18
Zr              6.39291694      0.03933395      0.01823987      0.23466678     -0.16647067     -0.10665427      40      -1       0       0      18
Zr             -1.60806606      2.80264168      0.01344852      0.03126582     -0.09566528     -0.07020048      40       0       0       0      18
Zr              1.61995922      2.76336639     10.39478399     -0.00439334      0.04902378      0.07316241      40       0       0      -1      18
Zr              4.84668305      2.80895162     10.38927273     -0.18162760     -0.10022491      0.06952557      40      -1       0      -1      18
Zr             -3.19756734      5.57612094      0.00199306     -0.11273366      0.04170248      0.00481343      40       0      -1       0      18
Zr             -0.03390732      5.53994442      0.01310610      0.14052771      0.12470555     -0.16317937      40       0      -1       0      18
Zr              3.18646651      5.55433576     10.39927130      0.13419721      0.07743307      0.11608068      40      -1      -1      -1      18
Zr              4.79710213      8.27341335      5.20585606      0.02743717      0.33657488      0.07883819      40      -1      -1      -1      18
Zr             -1.60976669      8.32843666      5.21684185      0.12911481      0.10876778     -0.10512579      40       0      -1      -1      18
Zr              6.45697764      0.01707482      5.19841469     -0.14893315     -0.33528590      0.16133537      40      -1       0       0      18
Zr             -1.58571689      2.75716201      5.18104717      0.00707003      0.15427492      0.12180434      40       0       0       0      18
Zr              1.62730162      2.76900612      5.19964236     -0.12071225     -0.10039050     -0.02862177      40       0       0       0      18
Zr              4.84621060      2.76333218      5.19410124     -0.07144140      0.08665233      0.03213729      40      -1       0       0      18
Zr             -3.23229696      5.61251190      5.23235980      0.14464360     -0.43606335     -0.24786734      40       0      -1      -1      18
Zr              0.00524838      5.54351572      5.13719203     -0.03301495      0.15843159      0.33833585      40       0      -1       0      18
Zr              3.21048085      5.51740609      5.23320020     -0.01826372      0.16872267     -0.21775592      40      -1      -1      -1      18
Zr              1.56659391      0.90534789      2.60785745      0.12037240      0.20312490     -0.02640367      40       0       0       0      18
Zr              4.85378361      0.88255648      2.62920140     -0.34977860      0.28562391     -0.09139032      40      -1       0       0      18
Zr              7.99476943      0.91209481      2.60733595      0.25360281      0.12210355     -0.09762094      40      -1       0       0      18
Zr             -0.01647124      3.73157934      2.59867025      0.09505002     -0.18320191     -0.05675975      40       0       0       0      18
Zr              3.21419702      3.67736867      2.59714541     -0.03826942      0.05965435     -0.01490764      40      -1       0       0      18
Zr              6.40285444      3.73736101      2.57555465      0.10689241     -0.06692194      0.24088518      40      -1       0       0      18
Zr             -1.65752009      6.52325454      2.58032321      0.27403881     -0.19444430      0.14273013      40       0      -1       0      18
Zr              1.61968496      6.51140867      2.56277006     -0.04984685     -0.15985949      0.25499339      40      -1      -1       0      18
Zr              4.83254517      6.49879422      2.61215914     -0.31573719     -0.12523415     -0.13014052      40      -1      -1       0      18
Zr              1.61742594      0.93684350      7.79757220     -0.03858224     -0.07512919      0.00360867      40       0       0      -1      18
Zr              4.82800631      0.93196225      7.81614367     -0.05954335      0.11626373     -0.06200506      40      -1       0      -1      18
Zr              8.01905591      0.93602152      7.81482610      0.05449140      0.04732010     -0.00449212      40      -1       0      -1      18
Zr              0.00711338      3.70084455      7.81574714      0.03056305      0.12633648     -0.12151964      40       0       0      -1      18
Zr              3.22758500      3.72080962      7.79569942     -0.11406724     -0.12520010      0.06799175      40      -1       0      -1      18
Zr              6.43094631      3.75824469      7.81304957      0.12037308     -0.28654074     -0.15857536      40      -1       0      -1      18
Zr             -1.62127512      6.49353915      7.78140134      0.20009555     -0.01315675      0.09840632      40       0      -1      -1      18
Zr              1.59347427      6.53102312      7.84862439     -0.00589965     -0.18620969     -0.28431921      40      -1      -1      -1      18
Zr              4.82877475      6.44932712      7.81714555     -0.18156519      0.30625592      0.10392428      40      -1      -1      -1      18
36
config_type=Zr_hcp_aimd300K_3x3x2 degauss=0.20000000 ecutwfc=300.00000000 kpoints="3       3       3" energy=-306.11697225 config_name=Zr_hcp_aimd300K_1_istep20 cutoff=5.00000000 nneightol=1.20000000 pbc="T T T" Lattice="9.63500533       0.00000000       0.00000000      -4.81750267       8.34415939       0.00000000       0.00000000       0.00000000      10.40488530" Properties=species:S:1:pos:R:3:force:R:3:Z:I:1:map_shift:I:3:n_neighb:I:1
Zr              0.00517756      0.02790671     10.37995443     -0.08041172     -0.18786151      0.09215753      40       0       0      -1      18
Zr             -1.55850191      8.31875409     10.40401708     -0.26139548      0.29205364      0.00782030      40       0      -1      -1      18
Zr              6.38335801      0.05226681      0.02412300      0.31382011     -0.21672914     -0.14170464      40      -1       0       0      18
Zr             -1.60872307      2.80962073      0.01782222      0.03945455     -0.12871088     -0.09362751      40       0       0       0      18
Zr              1.62483289      2.75733089     10.39160571     -0.00806264      0.06596778      0.09492033      40       0       0      -1      18
Zr              4.85607356      2.81806619     10.38414520     -0.24048857     -0.12556716      0.08728390      40      -1       0      -1      18
Zr             -3.19315331      5.58093293      0.00268425     -0.14962114      0.05425609      0.00097490      40       0      -1       0      18
Zr             -0.04507053      5.53258287      0.01693260      0.19216382      0.16430259     -0.21260901      40       0      -1       0      18
Zr              3.17827122      5.55175115     10.39783231      0.17624207      0.09673814      0.14833589      40      -1      -1      -1      18
Zr              4.79014450      8.25026532      5.20739099      0.03500381      0.44711048      0.10410977      40      -1      -1      -1      18
Zr             -1.61057584      8.32343066      5.22141833      0.16604723      0.14446780     -0.14143537      40       0      -1      -1      18
Zr              6.46803202      0.02154253      5.19767001     -0.19779389     -0.43568618      0.21244561      40      -1       0       0      18
Zr             -1.57870791      2.74939159      5.17412948      0.00865263      0.19746634      0.15885360      40       0       0       0      18
Zr              1.63423724      2.76427974      5.19854486     -0.15671801     -0.12396779     -0.03670479      40       0       0       0      18
Zr              4.85586309      2.75740908      5.19136486     -0.09283377      0.11269528      0.04031603      40      -1       0       0      18
Zr             -3.23883783      5.62791981      5.24170827      0.18742009     -0.57681436     -0.32849444      40       0      -1      -1      18
Zr              0.00695796      5.53751719      5.11598657     -0.04590549      0.20786791      0.43980772      40       0      -1       0      18
Zr              3.20998715      5.50239345      5.24294906     -0.02076174      0.22016353     -0.28559001      40      -1      -1      -1      18
Zr              1.55346916      0.89866446      2.61007296      0.15594297      0.26886581     -0.03569597      40       0       0       0      18
Zr              4.86487167      0.86833553      2.63850254     -0.45828315      0.37524264     -0.11662501      40      -1       0       0      18
Zr              7.98391998      0.90740798      2.60904381      0.33511289      0.16103698     -0.12690303      40      -1       0       0      18
Zr             -0.02175233      3.73877476      2.59754995      0.12560883     -0.24463984     -0.07680216      40       0       0       0      18
Zr              3.21490192      3.66680246      2.59565949     -0.05139323      0.08150233     -0.01694884      40      -1       0       0      18
Zr              6.39618668      3.74707970      2.56768960      0.14146769     -0.09342791      0.31171934      40      -1       0       0      18
Zr             -1.67427560      6.53401775      2.57363859      0.36568451     -0.25839675      0.19531624      40       0      -1       0      18
Zr              1.62426602      6.51819114      2.55053079     -0.06888461     -0.21362822      0.33208437      40      -1      -1       0      18
Zr              4.83637850      6.50133393      2.61538444     -0.41607067     -0.16452059     -0.16828560      40      -1      -1       0      18
Zr              1.62128292      0.93992884      7.79545865     -0.05094628     -0.09910606      0.00697340      40       0       0      -1      18
Zr              4.83139148      0.93415860      7.82021021     -0.07928053      0.14970722     -0.08127182      40      -1       0      -1      18
Zr              8.01579032      0.93933648      7.81870129      0.07152452      0.06424093     -0.00822859      40      -1       0      -1      18
Zr              0.00973742      3.69871036      7.81944888      0.03923475      0.16124896     -0.15758652      40       0       0      -1      18
Zr              3.23261934      3.72453153      7.79322961     -0.15019382     -0.16834695      0.09279621      40      -1       0      -1      18
Zr              6.43411921      3.77431186      7.81559835      0.15836247     -0.37836798     -0.20535193      40      -1       0      -1      18
Zr             -1.62576846      6.49474714      7.77410075      0.26219627     -0.01311653      0.13652644      40       0      -1      -1      18
Zr              1.58914112      6.54447808      7.86300092     -0.00201816     -0.24284614     -0.36380372      40      -1      -1      -1      18
Zr              4.83190107      6.43653745      7.82227745     -0.24287633      0.40679954      0.13522734      40      -1      -1      -1      18
36
config_type=Zr_hcp_aimd300K_3x3x2 degauss=0.20000000 ecutwfc=300.00000000 kpoints="3       3       3" energy=-305.95522969 config_name=Zr_hcp_aimd300K_1_istep25 cutoff=5.00000000 nneightol=1.20000000 pbc="T T T" Lattice="9.63500533       0.00000000       0.00000000      -4.81750267       8.34415939       0.00000000       0.00000000       0.00000000      10.40488530" Properties=species:S:1:pos:R:3:force:R:3:Z:I:1:map_shift:I:3:n_neighb:I:1
Zr              0.00618485      0.03453589     10.37356499     -0.09424364     -0.22889342      0.11574827      40       0       0      -1      18
Zr             -1.54695763      8.31334374     10.40385715     -0.32645766      0.36060411      0.00388895      40       0      -1      -1      18
Zr              6.37406143      0.06540928      0.02999135      0.39291071     -0.26507981     -0.17586515      40      -1       0       0      18
Zr             -1.60932555      2.81668724      0.02221037      0.04652643     -0.16250118     -0.11741383      40       0       0       0      18
Zr              1.62997216      2.75111191     10.38850225     -0.01379603      0.08403281      0.11497344      40       0       0      -1      18