   0.32976E+01   0.42745E-03   0.42745E-03   0.42657E-03   0.42657E-03
   0.65953E+01   0.85314E-03   0.85314E-03   0.85022E-03   0.85022E-03
   0.98929E+01   0.16820E-02   0.16820E-02   0.16736E-02   0.16736E-02
   0.13191E+02   0.16483E-02   0.16483E-02   0.16393E-02   0.16393E-02
   0.16488E+02   0.22458E-02   0.22458E-02   0.22328E-02   0.22328E-02
   0.19786E+02   0.29467E-02   0.29467E-02   0.29241E-02   0.29241E-02
   0.23083E+02   0.35282E-02   0.35282E-02   0.35001E-02   0.35001E-02
   0.26381E+02   0.43850E-02   0.43850E-02   0.43379E-02   0.43379E-02
   0.29679E+02   0.54636E-02   0.54636E-02   0.53803E-02   0.53803E-02
   0.32976E+02   0.60764E-02   0.60764E-02   0.60017E-02   0.60017E-02
   0.36274E+02   0.64982E-02   0.64982E-02   0.64384E-02   0.64384E-02
   0.39572E+02   0.68523E-02   0.68523E-02   0.68021E-02   0.68021E-02
   0.42869E+02   0.72291E-02   0.72291E-02   0.71789E-02   0.71789E-02
   0.46167E+02   0.76603E-02   0.76603E-02   0.75944E-02   0.75944E-02
   0.49465E+02   0.80668E-02   0.80668E-02   0.79645E-02   0.79645E-02
   0.52762E+02   0.83422E-02   0.83422E-02   0.81834E-02   0.81834E-02
   0.56060E+02   0.86256E-02   0.86256E-02   0.83831E-02   0.83831E-02
   0.59357E+02   0.90077E-02   0.90077E-02   0.86509E-02   0.86509E-02
   0.62655E+02   0.95045E-02   0.95045E-02   0.89947E-02   0.89947E-02
   0.65953E+02   0.10066E-01   0.10066E-01   0.93503E-02   0.93503E-02
   0.69250E+02   0.10770E-01   0.10770E-01   0.97600E-02   0.97600E-02
   0.72548E+02   0.11870E-01   0.11870E-01   0.10421E-01   0.10421E-01
   0.75846E+02   0.14706E-01   0.14706E-01   0.12189E-01   0.12189E-01
   0.79143E+02   0.15328E-01   0.15328E-01   0.12401E-01   0.12401E-01
   0.82441E+02   0.13069E-01   0.13069E-01   0.10670E-01   0.10670E-01
   0.85739E+02   0.11330E-01   0.11330E-01   0.94859E-02   0.94859E-02
   0.89036E+02   0.91734E-02   0.91734E-02   0.74832E-02   0.74832E-02
   0.92334E+02   0.65747E-02   0.65747E-02   0.54163E-02   0.54163E-02
   0.95631E+02   0.48001E-02   0.48001E-02   0.45627E-02   0.45627E-02
   0.98929E+02   0.46474E-02   0.46474E-02   0.53545E-02   0.53545E-02
   0.10223E+03   0.60060E-02   0.60060E-02   0.80505E-02   0.80505E-02
   0.10552E+03   0.76167E-02   0.76167E-02   0.10130E-01   0.10130E-01
   0.10882E+03   0.12354E-01   0.12354E-01   0.15554E-01   0.15554E-01
   0.11212E+03   0.20745E-01   0.20745E-01   0.24754E-01   0.24754E-01
   0.11542E+03   0.17132E-01   0.17132E-01   0.19440E-01   0.19440E-01
   0.11871E+03   0.16806E-01   0.16806E-01   0.18286E-01   0.18286E-01
   0.12201E+03   0.19083E-01   0.19083E-01   0.20155E-01   0.20155E-01
   0.12531E+03   0.25281E-01   0.25281E-01   0.26098E-01   0.26098E-01
   0.12861E+03   0.18017E-01   0.18017E-01   0.18460E-01   0.18460E-01
   0.13191E+03   0.17797E-01   0.17797E-01   0.18042E-01   0.18042E-01
   0.13520E+03   0.16725E-01   0.16725E-01   0.16830E-01   0.16830E-01
   0.13850E+03   0.16803E-01   0.16803E-01   0.16836E-01   0.16836E-01
   0.14180E+03   0.15995E-01   0.15995E-01   0.16019E-01   0.16019E-01
   0.14510E+03   0.16761E-01   0.16761E-01   0.16876E-01   0.16876E-01
   0.14839E+03   0.16861E-01   0.16861E-01   0.17277E-01   0.17277E-01
   0.15169E+03   0.70961E-02   0.70961E-02   0.72269E-02   0.72269E-02
   0.15499E+03   0.52596E-02   0.52596E-02   0.53681E-02   0.53681E-02
   0.15829E+03   0.52000E-02   0.52000E-02   0.53129E-02   0.53129E-02
   0.16158E+03   0.52119E-02   0.52119E-02   0.53312E-02   0.53312E-02
   0.16488E+03   0.51129E-02   0.51129E-02   0.52348E-02   0.52348E-02
   0.16818E+03   0.49461E-02   0.49461E-02   0.50685E-02   0.50685E-02
   0.17148E+03   0.49020E-02   0.49020E-02   0.50294E-02   0.50294E-02
   0.17477E+03   0.49517E-02   0.49517E-02   0.50874E-02   0.50874E-02
   0.17807E+03   0.49040E-02   0.49040E-02   0.50442E-02   0.50442E-02
   0.18137E+03   0.48102E-02   0.48102E-02   0.49534E-02   0.49534E-02
   0.18467E+03   0.47434E-02   0.47434E-02   0.48910E-02   0.48910E-02
   0.18797E+03   0.49109E-02   0.49109E-02   0.50749E-02   0.50749E-02
   0.19126E+03   0.47627E-02   0.47627E-02   0.49272E-02   0.49272E-02
   0.19456E+03   0.46577E-02   0.46577E-02   0.48276E-02   0.48276E-02
   0.19786E+03   0.35524E-02   0.35524E-02   0.36723E-02   0.36723E-02
   0.20116E+03   0.36119E-02   0.36119E-02   0.37454E-02   0.37454E-02
   0.20445E+03   0.37592E-02   0.37592E-02   0.39140E-02   0.39140E-02
   0.20775E+03   0.39348E-02   0.39348E-02   0.41170E-02   0.41170E-02
   0.21105E+03   0.41291E-02   0.41291E-02   0.43454E-02   0.43454E-02
   0.21435E+03   0.43161E-02   0.43161E-02   0.45747E-02   0.45747E-02
   0.21764E+03   0.44753E-02   0.44753E-02   0.47849E-02   0.47849E-02
   0.22094E+03   0.46778E-02   0.46778E-02   0.50559E-02   0.50559E-02
   0.22424E+03   0.48826E-02   0.48826E-02   0.53517E-02   0.53517E-02
   0.22754E+03   0.51164E-02   0.51164E-02   0.57158E-02   0.57158E-02
   0.23083E+03   0.53772E-02   0.53772E-02   0.61780E-02   0.61780E-02
   0.23413E+03   0.56386E-02   0.56386E-02   0.67641E-02   0.67641E-02
   0.23743E+03   0.58998E-02   0.58998E-02   0.74310E-02   0.74310E-02
   0.24073E+03   0.47027E-02   0.47027E-02   0.97966E-02   0.97966E-02
   0.24403E+03   0.46606E-02   0.46606E-02   0.58527E-02   0.58527E-02
   0.24732E+03   0.41716E-02   0.41716E-02   0.52992E-02   0.52992E-02
   0.25062E+03   0.61957E-02   0.61957E-02   0.54928E-02   0.54928E-02
   0.25392E+03   0.63270E-02   0.63270E-02   0.53360E-02   0.53360E-02
   0.25722E+03   0.81582E-02   0.81582E-02   0.58174E-02   0.58174E-02
   0.26051E+03   0.68836E-02   0.68836E-02   0.56826E-02   0.56826E-02
   0.26381E+03   0.70852E-02   0.70852E-02   0.60431E-02   0.60431E-02
   0.26711E+03   0.90041E-02   0.90041E-02   0.81172E-02   0.81172E-02
   0.27041E+03   0.57589E-01   0.57589E-01   0.55606E-01   0.55606E-01
   0.27370E+03   0.27193E-01   0.27193E-01   0.26441E-01   0.26441E-01
   0.27700E+03   0.20895E-01   0.20895E-01   0.20381E-01   0.20381E-01
   0.28030E+03   0.18806E-01   0.18806E-01   0.18405E-01   0.18405E-01
   0.28360E+03   0.18041E-01   0.18041E-01   0.17725E-01   0.17725E-01
   0.28689E+03   0.18360E-01   0.18360E-01   0.18111E-01   0.18111E-01
   0.29019E+03   0.20090E-01   0.20090E-01   0.19899E-01   0.19899E-01
   0.29349E+03   0.14424E-01   0.14424E-01   0.14238E-01   0.14238E-01
   0.29679E+03   0.20804E-01   0.20804E-01   0.20609E-01   0.20609E-01
   0.30009E+03   0.12534E-01   0.12534E-01   0.12431E-01   0.12431E-01
   0.30338E+03   0.00000E+00   0.00000E+00   0.00000E+00   0.00000E+00
   0.30668E+03   0.00000E+00   0.00000E+00   0.00000E+00   0.00000E+00
   0.30998E+03   0.00000E+00   0.00000E+00   0.00000E+00   0.00000E+00
   0.31328E+03   0.00000E+00   0.00000E+00   0.00000E+00   0.00000E+00
   0.31657E+03   0.00000E+00   0.00000E+00   0.00000E+00   0.00000E+00
   0.31987E+03   0.00000E+00   0.00000E+00   0.00000E+00   0.00000E+00
   0.32317E+03   0.00000E+00   0.00000E+00   0.00000E+00   0.00000E+00
   0.32647E+03   0.00000E+00   0.00000E+00   0.00000E+00   0.00000E+00
   0.32976E+03   0.00000E+00   0.00000E+00   0.00000E+00   0.00000E+00
