128  
2    

1    
  0.0100000000000000  -0.0000000000000010  -0.0000000000000007
  -0.0187972300    0.0000000000    0.0000000000
   0.0023621800   -0.0000000000   -0.0000000000
   0.0004907600   -0.0000000000   -0.0000000000
   0.0023393000   -0.0000000000   -0.0000000000
  -0.0001793800    0.0014614500    0.0004777600
   0.0003410600    0.0001900000    0.0000105000
   0.0003406300   -0.0001895100   -0.0000111600
  -0.0001750000   -0.0014573900   -0.0004764200
  -0.0000130000    0.0002908200    0.0001281300
   0.0000121800    0.0000004100   -0.0000002000
  -0.0000130000   -0.0002908200   -0.0001281300
   0.0000121800   -0.0000004100    0.0000002000
  -0.0001750000    0.0014573900    0.0004764200
  -0.0001793800   -0.0014614500   -0.0004777600
   0.0003410600   -0.0001900000   -0.0000105000
   0.0003406300    0.0001895100    0.0000111600
  -0.0001793800    0.0009375800    0.0012186200
   0.0003410600    0.0000732400    0.0001756300
   0.0003406300   -0.0000736900   -0.0001749500
  -0.0001750000   -0.0009349700   -0.0012152400
  -0.0000173700    0.0002803800    0.0001982600
   0.0000713000    0.0000001300    0.0000000900
  -0.0000165400   -0.0002796900   -0.0001977700
  -0.0000048600   -0.0000017000   -0.0000012000
  -0.0001440600    0.0002066000    0.0000226400
  -0.0001443200   -0.0002065100   -0.0000227700
   0.0001449000   -0.0001090500    0.0000151300
   0.0001446500    0.0001087200   -0.0000150100
  -0.0017989800    0.0000010100   -0.0000014300
   0.0007498100   -0.0004356100    0.0006160400
   0.0003333700   -0.0000001400    0.0000002000
   0.0007496000    0.0004357600   -0.0006162600
  -0.0000130000    0.0002177400    0.0002314800
   0.0000121800   -0.0000000500    0.0000004600
  -0.0000130000   -0.0002177400   -0.0002314800
   0.0000121800    0.0000000500   -0.0000004600
  -0.0001440600    0.0000902100    0.0001872400
  -0.0001443200   -0.0000903100   -0.0001871100
   0.0001449000   -0.0000220900   -0.0001078500
   0.0001446500    0.0000220900    0.0001075000
  -0.0003899200    0.0000000000    0.0000000000
   0.0001066400   -0.0000000000   -0.0000000000
   0.0001793900   -0.0000000000   -0.0000000000
   0.0001062800   -0.0000000000   -0.0000000000
  -0.0001443200    0.0000903100    0.0001871100
   0.0001449000    0.0000220900    0.0001078500
   0.0001446500   -0.0000220900   -0.0001075000
  -0.0001440600   -0.0000902100   -0.0001872400
  -0.0001750000    0.0009349700    0.0012152400
  -0.0001793800   -0.0009375800   -0.0012186200
   0.0003410600   -0.0000732400   -0.0001756300
   0.0003406300    0.0000736900    0.0001749500
  -0.0017989800   -0.0000010100    0.0000014300
   0.0007498100    0.0004356100   -0.0006160400
   0.0003333700    0.0000001400   -0.0000002000
   0.0007496000   -0.0004357600    0.0006162600
  -0.0001443200    0.0002065100    0.0000227700
   0.0001449000    0.0001090500   -0.0000151300
   0.0001446500   -0.0001087200    0.0000150100
  -0.0001440600   -0.0002066000   -0.0000226400
  -0.0000165400    0.0002796900    0.0001977700
  -0.0000048600    0.0000017000    0.0000012000
  -0.0000173700   -0.0002803800   -0.0001982600
   0.0000713000   -0.0000001300   -0.0000000900
  -0.0004849100   -0.0006039600   -0.0004270700
  -0.0003420800    0.0000005300    0.0000003700
  -0.0004828400    0.0006018100    0.0004255400
   0.0018649300   -0.0000087600   -0.0000061900
  -0.0000554400   -0.0001650800   -0.0000475000
  -0.0000553400    0.0001648600    0.0000479700
   0.0000644000    0.0001571600    0.0000638500
   0.0000659300   -0.0001558600   -0.0000641800
   0.0005592500   -0.0000005500    0.0000008600
  -0.0001898600    0.0004898600   -0.0000126000
  -0.0001925500   -0.0000003700    0.0000004300
  -0.0001891500   -0.0004897600    0.0000127000
   0.0034296600   -0.0009072600    0.0012830600
  -0.0006220500    0.0000543000   -0.0000767900
  -0.0006209900   -0.0000537500    0.0000760100
   0.0033055600    0.0008274400   -0.0011701700
  -0.0000554400   -0.0000998100   -0.0001398100
  -0.0000553400    0.0001001800    0.0001394400
   0.0000644000    0.0001125900    0.0001268900
   0.0000659300   -0.0001124600   -0.0001255600
   0.0001174700   -0.0000002600   -0.0000001900
  -0.0000225600    0.0000978400    0.0000691800
  -0.0000710200    0.0000001700    0.0000001200
  -0.0000224400   -0.0000978700   -0.0000692000
   0.0001660300    0.0002403300   -0.0003398800
  -0.0001581500    0.0000506700   -0.0000716600
  -0.0001583700   -0.0000508600    0.0000719200
   0.0001669600   -0.0002402400    0.0003397400
  -0.0001898600   -0.0001514100   -0.0004660400
  -0.0001925500   -0.0000002800    0.0000004900
  -0.0001891500    0.0001512800    0.0004659800
   0.0005592500   -0.0000006300    0.0000008100
   0.0005592500    0.0000006300   -0.0000008100
  -0.0001898600    0.0001514100    0.0004660400
  -0.0001925500    0.0000002800   -0.0000004900
  -0.0001891500   -0.0001512800   -0.0004659800
   0.0001660300   -0.0002403300    0.0003398800
  -0.0001581500   -0.0000506700    0.0000716600
  -0.0001583700    0.0000508600   -0.0000719200
   0.0001669600    0.0002402400   -0.0003397400
  -0.0000225600   -0.0000978400   -0.0000691800
  -0.0000710200   -0.0000001700   -0.0000001200
  -0.0000224400    0.0000978700    0.0000692000
   0.0001174700    0.0000002600    0.0000001900
   0.0000644000   -0.0001125900   -0.0001268900
   0.0000659300    0.0001124600    0.0001255600
  -0.0000554400    0.0000998100    0.0001398100
  -0.0000553400   -0.0001001800   -0.0001394400
   0.0034296600    0.0009072600   -0.0012830600
  -0.0006220500   -0.0000543000    0.0000767900
  -0.0006209900    0.0000537500   -0.0000760100
   0.0033055600   -0.0008274400    0.0011701700
  -0.0001898600   -0.0004898600    0.0000126000
  -0.0001925500    0.0000003700   -0.0000004300
  -0.0001891500    0.0004897600   -0.0000127000
   0.0005592500    0.0000005500   -0.0000008600
   0.0000644000   -0.0001571600   -0.0000638500
   0.0000659300    0.0001558600    0.0000641800
  -0.0000554400    0.0001650800    0.0000475000
  -0.0000553400   -0.0001648600   -0.0000479700
   0.0018649300    0.0000087600    0.0000061900
  -0.0004849100    0.0006039600    0.0004270700
  -0.0003420800   -0.0000005300   -0.0000003700
  -0.0004828400   -0.0006018100   -0.0004255400

65   
  0.0100000000000000  -0.0000000000000010  -0.0000000000000007
  -0.0004849100   -0.0006007400   -0.0004247900
   0.0018662500    0.0000057400    0.0000040600
  -0.0004840700    0.0006042100    0.0004272400
  -0.0003451600    0.0000006000    0.0000004300
   0.0033048300   -0.0008243400    0.0011657900
   0.0034322400    0.0009108900   -0.0012881900
  -0.0006257700   -0.0002415000    0.0003415300
  -0.0006242700    0.0002393400   -0.0003384800
   0.0005590300    0.0000014300    0.0000003400
  -0.0001905900   -0.0003051200    0.0001446800
  -0.0001955100   -0.0000003300    0.0000001700
  -0.0001915800    0.0003047700   -0.0001446400
  -0.0000581100   -0.0001654500   -0.0000478900
   0.0000642100   -0.0003438100   -0.0001953900
   0.0000643000    0.0003432400    0.0001953600
  -0.0000579900    0.0001661000    0.0000483600
   0.0033048300    0.0008243400   -0.0011657900
   0.0034322400   -0.0009108900    0.0012881900
  -0.0006257700    0.0002415000   -0.0003415300
  -0.0006242700   -0.0002393400    0.0003384800
   0.0018662500   -0.0000057400   -0.0000040600
  -0.0004840700   -0.0006042100   -0.0004272400
  -0.0003451600   -0.0000006000   -0.0000004300
  -0.0004849100    0.0006007400    0.0004247900
   0.0000643000   -0.0003432400   -0.0001953600
  -0.0000579900   -0.0001661000   -0.0000483600
  -0.0000581100    0.0001654500    0.0000478900
   0.0000642100    0.0003438100    0.0001953900
  -0.0001915800   -0.0003047700    0.0001446400
   0.0005590300   -0.0000014300   -0.0000003400
  -0.0001905900    0.0003051200   -0.0001446800
  -0.0001955100    0.0000003300   -0.0000001700
   0.0005590300    0.0000008000    0.0000012400
  -0.0001905900    0.0000347000   -0.0003359000
  -0.0001955100    0.0000000500   -0.0000003700
  -0.0001915800   -0.0000347800    0.0003355600
   0.0000643000   -0.0002986000   -0.0002584900
  -0.0000579900   -0.0001009600   -0.0001404800
  -0.0000581100    0.0001003000    0.0001400200
   0.0000642100    0.0002988200    0.0002590200
  -0.0000246300   -0.0000988400   -0.0000698900
   0.0001162500   -0.0000003600   -0.0000002600
  -0.0000241100    0.0000987900    0.0000698500
  -0.0000728100    0.0000001200    0.0000000900
   0.0001640800   -0.0000546100    0.0000772300
   0.0001663600    0.0000542200   -0.0000766800
  -0.0001603700    0.0000507300   -0.0000717500
  -0.0001605800   -0.0000504800    0.0000713900
  -0.0000581100   -0.0001003000   -0.0001400200
   0.0000642100   -0.0002988200   -0.0002590200
   0.0000643000    0.0002986000    0.0002584900
  -0.0000579900    0.0001009600    0.0001404800
  -0.0001915800    0.0000347800   -0.0003355600
   0.0005590300   -0.0000008000   -0.0000012400
  -0.0001905900   -0.0000347000    0.0003359000
  -0.0001955100   -0.0000000500    0.0000003700
   0.0001640800    0.0000546100   -0.0000772300
   0.0001663600   -0.0000542200    0.0000766800
  -0.0001603700   -0.0000507300    0.0000717500
  -0.0001605800    0.0000504800   -0.0000713900
   0.0001162500    0.0000003600    0.0000002600
  -0.0000241100   -0.0000987900   -0.0000698500
  -0.0000728100   -0.0000001200   -0.0000000900
  -0.0000246300    0.0000988400    0.0000698900
  -0.0238028600    0.0000000000    0.0000000000
   0.0035727800   -0.0000000000   -0.0000000000
   0.0007636900   -0.0000000000   -0.0000000000
   0.0035246000   -0.0000000000   -0.0000000000
   0.0002381700    0.0019103000    0.0000271000
   0.0003211000    0.0002485400    0.0000051600
   0.0003212100   -0.0002469200   -0.0000050800
   0.0002420400   -0.0019045800   -0.0000269800
   0.0001247500    0.0003712900    0.0000013000
  -0.0001078100    0.0000002700    0.0000000900
   0.0001247500   -0.0003712900   -0.0000013000
  -0.0001078100   -0.0000002700   -0.0000000900
   0.0002420400    0.0019045800    0.0000269800
   0.0002381700   -0.0019103000   -0.0000271000
   0.0003211000   -0.0002485400   -0.0000051600
   0.0003212100    0.0002469200    0.0000050800
   0.0002381700    0.0006623200    0.0017920200
   0.0003211000    0.0000877200    0.0002326100
   0.0003212100   -0.0000871000   -0.0002311000
   0.0002420400   -0.0006603000   -0.0017866600
   0.0000914000    0.0002202100    0.0001557100
   0.0000912700    0.0000003300    0.0000002300
   0.0000915600   -0.0002200100   -0.0001555700
  -0.0002714700   -0.0000003800   -0.0000002700
  -0.0000597200    0.0001330100   -0.0000759900
  -0.0000604800   -0.0001323300    0.0000763400
   0.0000548300   -0.0001021300    0.0000075100
   0.0000550500    0.0001017000   -0.0000072900
  -0.0009055400    0.0000036700   -0.0000051800
   0.0001760000   -0.0002590800    0.0003664000
   0.0002315500   -0.0000003100    0.0000004300
   0.0001768600    0.0002581800   -0.0003651300
   0.0001247500    0.0001249900    0.0003496200
  -0.0001078100    0.0000001700    0.0000002200
   0.0001247500   -0.0001249900   -0.0003496200
  -0.0001078100   -0.0000001700   -0.0000002200
  -0.0000597200   -0.0000273100    0.0001507300
  -0.0000604800    0.0000278700   -0.0001502100
   0.0000548300   -0.0000269600   -0.0000987900
   0.0000550500    0.0000270200    0.0000983100
  -0.0000915100    0.0000000000    0.0000000000
   0.0000078400   -0.0000000000   -0.0000000000
   0.0000754800   -0.0000000000   -0.0000000000
   0.0000084000   -0.0000000000   -0.0000000000
  -0.0000604800   -0.0000278700    0.0001502100
   0.0000548300    0.0000269600    0.0000987900
   0.0000550500   -0.0000270200   -0.0000983100
  -0.0000597200    0.0000273100   -0.0001507300
   0.0002420400    0.0006603000    0.0017866600
   0.0002381700   -0.0006623200   -0.0017920200
   0.0003211000   -0.0000877200   -0.0002326100
   0.0003212100    0.0000871000    0.0002311000
  -0.0009055400   -0.0000036700    0.0000051800
   0.0001760000    0.0002590800   -0.0003664000
   0.0002315500    0.0000003100   -0.0000004300
   0.0001768600   -0.0002581800    0.0003651300
  -0.0000604800    0.0001323300   -0.0000763400
   0.0000548300    0.0001021300   -0.0000075100
   0.0000550500   -0.0001017000    0.0000072900
  -0.0000597200   -0.0001330100    0.0000759900
   0.0000915600    0.0002200100    0.0001555700
  -0.0002714700    0.0000003800    0.0000002700
   0.0000914000   -0.0002202100   -0.0001557100
   0.0000912700   -0.0000003300   -0.0000002300
