nqpoint: 404    
npath: 4      
segment_nqpoint:
- 101
- 101
- 101
- 101
labels:
- [ '$\Gamma$', 'X' ]
- [ 'X', 'K' ]
- [ 'K', '$\Gamma$' ]
- [ '$\Gamma$', 'L' ]
reciprocal_lattice:
- [   0.25011959,  -0.14440661,  -0.10211090 ] # a*
- [   0.00000000,   0.28881323,  -0.10211090 ] # b*
- [   0.00000000,  -0.00000000,   0.30633269 ] # c*
natom: 2      
lattice:
- [     3.998087430433594,    -0.000000000000381,    -0.000000000000269 ] # a
- [     1.999043715266137,     3.462445281334601,     0.000000000000099 ] # b
- [     1.999043715266137,     1.154148427078513,     3.264424717202195 ] # c
points:
- symbol: Na # 1
  coordinates: [  0.000000000000000,  0.000000000000000,  0.000000000000000 ]
  mass: 22.989769
- symbol: Cl # 2
  coordinates: [  0.500000000000000,  0.500000000000000,  0.500000000000000 ]
  mass: 35.453000
supercell_matrix:
- [   16,    0,    0 ]
- [    0,   16,    0 ]
- [    0,    0,   16 ]

phonon:
- q-position: [    0.0001000,    0.0001000,    1.0000000 ]
  distance:    0.0000000
  band:
  - # 1
    frequency:   -0.0075108333
    eigenvector:
    - # atom 1
      - [  0.01758262266993, -0.00000000000000 ]
      - [  0.01015117179689,  0.00000000000001 ]
      - [  0.62686560511183,  0.00000000000016 ]
    - # atom 2
      - [ -0.02183433375777, -0.00000000000000 ]
      - [ -0.01260585961447, -0.00000000000001 ]
      - [ -0.77845466945205, -0.00000000000019 ]
  - # 2
    frequency:   -0.0035356966
    eigenvector:
    - # atom 1
      - [ -0.31359517666758,  0.00000000000000 ]
      - [  0.54316710078670, -0.00000000000016 ]
      - [  0.00000006876750,  0.00000000000001 ]
    - # atom 2
      - [  0.38942917382684, -0.00000000000000 ]
      - [ -0.67451648190858,  0.00000000000020 ]
      - [ -0.00000008539705, -0.00000000000001 ]
  - # 3
    frequency:   -0.0032169623
    eigenvector:
    - # atom 1
      - [  0.54288242419520,  0.00000000000000 ]
      - [  0.31343082243903, -0.00000000000009 ]
      - [ -0.02030249186666,  0.00000000000000 ]
    - # atom 2
      - [ -0.67416301477664, -0.00000000000000 ]
      - [ -0.38922510429874,  0.00000000000012 ]
      - [  0.02521209154454, -0.00000000000000 ]
  - # 4
    frequency:    5.5094777318
    eigenvector:
    - # atom 1
      - [  0.38944221291242,  0.00000000000000 ]
      - [  0.22481973554403, -0.00000000000023 ]
      - [  0.63593883724756, -0.00000000000016 ]
    - # atom 2
      - [  0.31360567665408,  0.00000000000000 ]
      - [  0.18104032627372, -0.00000000000018 ]
      - [  0.51210206446083, -0.00000000000013 ]
  - # 5
    frequency:    5.5094780233
    eigenvector:
    - # atom 1
      - [ -0.38942074549642,  0.00000000000000 ]
      - [  0.67452134766998, -0.00000000000023 ]
      - [  0.00001755809174, -0.00000000000016 ]
    - # atom 2
      - [ -0.31358838959550,  0.00000000000000 ]
      - [  0.54317101903286, -0.00000000000018 ]
      - [  0.00001413899307, -0.00000000000013 ]
  - # 6
    frequency:    8.0197007186
    eigenvector:
    - # atom 1
      - [  0.55073935380515,  0.00000000000000 ]
      - [  0.31796951414672,  0.00000000000000 ]
      - [ -0.44967668043129, -0.00000000000000 ]
    - # atom 2
      - [  0.44349319209026,  0.00000000000000 ]
      - [  0.25605091381637,  0.00000000000000 ]
      - [ -0.36211069222446, -0.00000000000000 ]

- q-position: [    0.0050990,    0.0050990,    1.0000000 ]
  distance:    0.0017683
  band:
  - # 1
    frequency:    0.0427936557
    eigenvector:
    - # atom 1
      - [ -0.31247732884704,  0.00000000000000 ]
      - [ -0.18040876993671, -0.00000000000040 ]
      - [ -0.51300108925737, -0.00000000000028 ]
    - # atom 2
      - [  0.38805158691333,  0.00000000000000 ]
      - [  0.22404156399244,  0.00000000000049 ]
      - [  0.63707285345175,  0.00000000000035 ]
  - # 2
    frequency:    0.0431349103
    eigenvector:
    - # atom 1
      - [ -0.31359177558612,  0.00000000000000 ]
      - [  0.54315698924616,  0.00000000000039 ]
      - [  0.00000007031380,  0.00000000000028 ]
    - # atom 2
      - [  0.38943565384776, -0.00000000000000 ]
      - [ -0.67452246428858, -0.00000000000049 ]
      - [ -0.00000008731980, -0.00000000000035 ]
  - # 3
    frequency:    0.1001247458
    eigenvector:
    - # atom 1
      - [ -0.44427258892374,  0.00000000000000 ]
      - [ -0.25650089777715,  0.00000000000000 ]
      - [  0.36081840122504, -0.00000000000000 ]
    - # atom 2
      - [  0.55172078207957,  0.00000000000000 ]
      - [  0.31853614076952, -0.00000000000000 ]
      - [ -0.44808274141400,  0.00000000000000 ]
  - # 4
    frequency:    5.5095605056
    eigenvector:
    - # atom 1
      - [  0.38944653041116,  0.00000000000000 ]
      - [  0.22482198313363, -0.00000000000790 ]
      - [  0.63594571584380, -0.00000000000558 ]
    - # atom 2
      - [  0.31360053467829,  0.00000000000000 ]
      - [  0.18103716072054, -0.00000000000636 ]
      - [  0.51209352020722, -0.00000000000450 ]
  - # 5
    frequency:    5.5095607941
    eigenvector:
    - # atom 1
      - [ -0.38942484980306,  0.00000000000000 ]
      - [  0.67452870165712, -0.00000000000790 ]
      - [  0.00001773141742, -0.00000000000558 ]
    - # atom 2
      - [ -0.31358307566460,  0.00000000000000 ]
      - [  0.54316201186670, -0.00000000000636 ]
      - [  0.00001427817425, -0.00000000000450 ]
  - # 6
    frequency:    8.0189354527
    eigenvector:
    - # atom 1
      - [  0.55074465070387,  0.00000000000000 ]
      - [  0.31797257231262,  0.00000000000000 ]
      - [ -0.44968100909830, -0.00000000000000 ]
    - # atom 2
      - [  0.44348661235029,  0.00000000000000 ]
      - [  0.25604711500172,  0.00000000000000 ]
      - [ -0.36210531976162, -0.00000000000000 ]

- q-position: [    0.0100980,    0.0100980,    1.0000000 ]
  distance:    0.0035365
  band:
  - # 1
    frequency:    0.0854612277
    eigenvector:
    - # atom 1
      - [  0.31330024462530,  0.00000000000000 ]
      - [  0.18088387866829,  0.00000000000166 ]
      - [  0.51229421840338,  0.00000000000118 ]
    - # atom 2
      - [ -0.38910461815251, -0.00000000000000 ]
      - [ -0.22464952947418, -0.00000000000206 ]
      - [ -0.63624586284355, -0.00000000000146 ]
  - # 2
    frequency:    0.0856285539
    eigenvector:
    - # atom 1
      - [  0.31357657549798,  0.00000000000000 ]
      - [ -0.54313066302285, -0.00000000000166 ]
      - [ -0.00000007195271, -0.00000000000118 ]
    - # atom 2
      - [ -0.38944789219876,  0.00000000000000 ]
      - [  0.67454366311251,  0.00000000000206 ]
      - [  0.00000008936223,  0.00000000000146 ]
  - # 3
    frequency:    0.1984614540
    eigenvector:
    - # atom 1
      - [ -0.44366271001204,  0.00000000000000 ]
      - [ -0.25614878478416,  0.00000000000000 ]
      - [  0.36177048551063, -0.00000000000000 ]
    - # atom 2
      - [  0.55100274332846,  0.00000000000000 ]
      - [  0.31812158184812, -0.00000000000000 ]
      - [ -0.44929717517332,  0.00000000000000 ]
  - # 4
    frequency:    5.5098017893
    eigenvector:
    - # atom 1
      - [ -0.38945887170677,  0.00000000000000 ]
      - [ -0.22482887408470,  0.00000000002648 ]
      - [ -0.63596570481741,  0.00000000001873 ]
    - # atom 2
      - [ -0.31358541741686, -0.00000000000000 ]
      - [ -0.18102824572520,  0.00000000002132 ]
      - [ -0.51206869378623,  0.00000000001508 ]
  - # 5
    frequency:    5.5098020749
    eigenvector:
    - # atom 1
      - [  0.38943698729341,  0.00000000000000 ]
      - [ -0.67454995870643,  0.00000000002648 ]
      - [ -0.00001789709205,  0.00000000001873 ]
    - # atom 2
      - [  0.31356779506029, -0.00000000000000 ]
      - [ -0.54313573212417,  0.00000000002132 ]
      - [ -0.00001441043167,  0.00000000001508 ]
  - # 6
    frequency:    8.0166987116
    eigenvector:
    - # atom 1
      - [  0.55076011832574,  0.00000000000000 ]
      - [  0.31798150254824,  0.00000000000000 ]
      - [ -0.44969364191598, -0.00000000000000 ]
    - # atom 2
      - [  0.44346740142130,  0.00000000000000 ]
      - [  0.25603602356667,  0.00000000000000 ]
      - [ -0.36208963397498, -0.00000000000000 ]

- q-position: [    0.0150970,    0.0150970,    1.0000000 ]
  distance:    0.0053048
  band:
  - # 1
    frequency:    0.1279246188
    eigenvector:
    - # atom 1
      - [  0.31343149053269,  0.00000000000000 ]
      - [  0.18095965151984,  0.00000000000284 ]
      - [  0.51212611703248,  0.00000000000201 ]
    - # atom 2
      - [ -0.38931862768334, -0.00000000000000 ]
      - [ -0.22477308542314, -0.00000000000353 ]
      - [ -0.63612043806628, -0.00000000000250 ]
  - # 2
    frequency:    0.1280339376
    eigenvector:
    - # atom 1
      - [ -0.31355164834334,  0.00000000000000 ]
      - [  0.54308748977959,  0.00000000000284 ]
      - [  0.00000007342697,  0.00000000000201 ]
    - # atom 2
      - [  0.38946796013761, -0.00000000000000 ]
      - [ -0.67457842412303, -0.00000000000353 ]
      - [ -0.00000009120514, -0.00000000000249 ]
  - # 3
    frequency:    0.2967015712
    eigenvector:
    - # atom 1
      - [ -0.44352059586880,  0.00000000000000 ]
      - [ -0.25606673528899,  0.00000000000000 ]
      - [  0.36192485868155,  0.00000000000000 ]
    - # atom 2
      - [  0.55089133208665,  0.00000000000000 ]
      - [  0.31805725871611, -0.00000000000000 ]
      - [ -0.44954201716497, -0.00000000000000 ]
  - # 4
    frequency:    5.5101996642
    eigenvector:
    - # atom 1
      - [  0.38947903427850,  0.00000000000000 ]
      - [  0.22484030075253, -0.00000000004268 ]
      - [  0.63599848002021, -0.00000000003018 ]
    - # atom 2
      - [  0.31356056581611,  0.00000000000000 ]
      - [  0.18101372787067, -0.00000000003436 ]
      - [  0.51202798391731, -0.00000000002430 ]
  - # 5
    frequency:    5.5101999470
    eigenvector:
    - # atom 1
      - [ -0.38945696348393,  0.00000000000000 ]
      - [  0.67458477268184, -0.00000000004269 ]
      - [  0.00001804855321, -0.00000000003018 ]
    - # atom 2
      - [ -0.31354279519156,  0.00000000000000 ]
      - [  0.54309260085759, -0.00000000003437 ]
      - [  0.00001453048142, -0.00000000002430 ]
  - # 6
    frequency:    8.0129910733
    eigenvector:
    - # atom 1
      - [  0.55078571246464,  0.00000000000000 ]
      - [  0.31799627933117,  0.00000000000000 ]
      - [ -0.44971454280222,  0.00000000000000 ]
    - # atom 2
      - [  0.44343561149884,  0.00000000000000 ]
      - [  0.25601766964635,  0.00000000000000 ]
      - [ -0.36206367748235, -0.00000000000000 ]

- q-position: [    0.0200960,    0.0200960,    1.0000000 ]
  distance:    0.0070730
  band:
  - # 1
    frequency:    0.1702896721
    eigenvector:
    - # atom 1
      - [  0.31345149265360,  0.00000000000000 ]
      - [  0.18097119731299,  0.00000000000192 ]
      - [  0.51202590427275,  0.00000000000136 ]
    - # atom 2
      - [ -0.38941357510914, -0.00000000000000 ]
      - [ -0.22482790029448, -0.00000000000238 ]
      - [ -0.63611048067132, -0.00000000000169 ]
  - # 2
    frequency:    0.1703699740
    eigenvector:
    - # atom 1
      - [ -0.31351739628913,  0.00000000000000 ]
      - [  0.54302816586385,  0.00000000000192 ]
      - [  0.00000007516920,  0.00000000000136 ]
    - # atom 2
      - [  0.38949553107010, -0.00000000000000 ]
      - [ -0.67462618136197, -0.00000000000238 ]
      - [ -0.00000009338600, -0.00000000000169 ]
  - # 3
    frequency:    0.3948542959
    eigenvector:
    - # atom 1
      - [ -0.44343796860975,  0.00000000000000 ]
      - [ -0.25601903046948,  0.00000000000000 ]
      - [  0.36195134488683, -0.00000000000000 ]
    - # atom 2
      - [  0.55087936135666,  0.00000000000000 ]
      - [  0.31805034747493, -0.00000000000000 ]
      - [ -0.44964892268268,  0.00000000000000 ]
  - # 4
    frequency:    5.5107509723
    eigenvector:
    - # atom 1
      - [ -0.38950669385374,  0.00000000000000 ]
      - [ -0.22485607027720,  0.00000000003671 ]
      - [ -0.63604350793188,  0.00000000002596 ]
    - # atom 2
      - [ -0.31352638392992, -0.00000000000000 ]
      - [ -0.18099383587277,  0.00000000002955 ]
      - [ -0.51197204716295,  0.00000000002089 ]
  - # 5
    frequency:    5.5107512524
    eigenvector:
    - # atom 1
      - [  0.38948444921628,  0.00000000000000 ]
      - [ -0.67463257910543,  0.00000000003671 ]
      - [ -0.00001818978970,  0.00000000002596 ]
    - # atom 2
      - [  0.31350847615074, -0.00000000000000 ]
      - [ -0.54303331561208,  0.00000000002955 ]
      - [ -0.00001464155131,  0.00000000002090 ]
  - # 6
    frequency:    8.0078135034
    eigenvector:
    - # atom 1
      - [  0.55082136054658,  0.00000000000000 ]
      - [  0.31801686076082,  0.00000000000000 ]
      - [ -0.44974365251232, -0.00000000000000 ]
    - # atom 2
      - [  0.44339132827547,  0.00000000000000 ]
      - [  0.25599210271537,  0.00000000000000 ]
      - [ -0.36202752025199, -0.00000000000000 ]

- q-position: [    0.0250950,    0.0250950,    1.0000000 ]
  distance:    0.0088413
  band:
  - # 1
    frequency:    0.2125628881
    eigenvector:
    - # atom 1
      - [  0.31343330514724,  0.00000000000000 ]
      - [  0.18096069503536,  0.00000000000407 ]
      - [  0.51193537961173,  0.00000000000288 ]
    - # atom 2
      - [ -0.38947903886854, -0.00000000000000 ]
      - [ -0.22486569365145, -0.00000000000506 ]
      - [ -0.63614185153886, -0.00000000000358 ]
  - # 2
    frequency:    0.2126257956
    eigenvector:
    - # atom 1
      - [ -0.31347437578685,  0.00000000000000 ]
      - [  0.54295365385890,  0.00000000000407 ]
      - [  0.00000007639144,  0.00000000000288 ]
    - # atom 2
      - [  0.38953015422005, -0.00000000000000 ]
      - [ -0.67468615254769, -0.00000000000506 ]
      - [ -0.00000009492590, -0.00000000000358 ]
  - # 3
    frequency:    0.4929014750
    eigenvector:
    - # atom 1
      - [ -0.44336375683617,  0.00000000000000 ]
      - [ -0.25597618430561, -0.00000000000000 ]
      - [  0.36193375477772,  0.00000000000000 ]
    - # atom 2
      - [  0.55090316327613,  0.00000000000000 ]
      - [  0.31806408954884,  0.00000000000000 ]
      - [ -0.44972176840441, -0.00000000000000 ]
  - # 4
    frequency:    5.5114513510
    eigenvector:
    - # atom 1
      - [ -0.38954140167590,  0.00000000000000 ]
      - [ -0.22487591739131,  0.00000000006772 ]
      - [ -0.63610005137117,  0.00000000004789 ]
    - # atom 2
      - [ -0.31348342986134, -0.00000000000000 ]
      - [ -0.18096888693672,  0.00000000005450 ]
      - [ -0.51190179132979,  0.00000000003854 ]
  - # 5
    frequency:    5.5114516284
    eigenvector:
    - # atom 1
      - [  0.38951899038347,  0.00000000000000 ]
      - [ -0.67469259761846,  0.00000000006772 ]
      - [ -0.00001832516980,  0.00000000004789 ]
    - # atom 2
      - [  0.31346539168959, -0.00000000000000 ]
      - [ -0.54295884052947,  0.00000000005450 ]
      - [ -0.00001474718798,  0.00000000003854 ]
  - # 6
    frequency:    8.0011673646
    eigenvector:
    - # atom 1
      - [  0.55086696269123,  0.00000000000000 ]
      - [  0.31804318917123,  0.00000000000000 ]
      - [ -0.44978088950519,  0.00000000000000 ]
    - # atom 2
      - [  0.44333466968304,  0.00000000000000 ]
      - [  0.25595939086171,  0.00000000000000 ]
      - [ -0.36198125857534, -0.00000000000000 ]

- q-position: [    0.0300940,    0.0300940,    1.0000000 ]
  distance:    0.0106096
  band:
  - # 1
    frequency:    0.2547343710
    eigenvector:
    - # atom 1
      - [  0.31339553872201,  0.00000000000000 ]
      - [  0.18093888858795,  0.00000000000381 ]
      - [  0.51184108387506,  0.00000000000269 ]
    - # atom 2
      - [ -0.38953668431151, -0.00000000000000 ]
      - [ -0.22489897275189, -0.00000000000473 ]
      - [ -0.63619547577301, -0.00000000000335 ]
  - # 2
    frequency:    0.2547857049
    eigenvector:
    - # atom 1
      - [ -0.31342329061322,  0.00000000000000 ]
      - [  0.54286517372059,  0.00000000000380 ]
      - [  0.00000007780459,  0.00000000000269 ]
    - # atom 2
      - [  0.38957125772360, -0.00000000000000 ]
      - [ -0.67475734839877, -0.00000000000473 ]
      - [ -0.00000009670787, -0.00000000000334 ]
  - # 3
    frequency:    0.5908202595
    eigenvector:
    - # atom 1
      - [ -0.44328545709332,  0.00000000000000 ]
      - [ -0.25593097794081,  0.00000000000000 ]
      - [  0.36189288569946,  0.00000000000000 ]
    - # atom 2
      - [  0.55094690077132,  0.00000000000000 ]
      - [  0.31808934141937, -0.00000000000000 ]
      - [ -0.44978612778275, -0.00000000000000 ]
  - # 4
    frequency:    5.5122952800
    eigenvector:
    - # atom 1
      - [  0.38958258162630,  0.00000000000000 ]
      - [  0.22489952051575, -0.00000000005570 ]
      - [  0.63616717735227, -0.00000000003938 ]
    - # atom 2
      - [  0.31343240399754,  0.00000000000000 ]
      - [  0.18093929425413, -0.00000000004481 ]
      - [  0.51181836636053, -0.00000000003169 ]
  - # 5
    frequency:    5.5122955547
    eigenvector:
    - # atom 1
      - [  0.38956002043006,  0.00000000000000 ]
      - [ -0.67476383587499,  0.00000000005570 ]
      - [ -0.00001844688480,  0.00000000003939 ]
    - # atom 2
      - [  0.31341424982918, -0.00000000000000 ]
      - [ -0.54287039311539,  0.00000000004481 ]
      - [ -0.00001484115271,  0.00000000003169 ]
  - # 6
    frequency:    7.9930544313
    eigenvector:
    - # atom 1
      - [  0.55092239318783,  0.00000000000000 ]
      - [  0.31807519198326,  0.00000000000000 ]
      - [ -0.44982615114849,  0.00000000000000 ]
    - # atom 2
      - [  0.44326578414092,  0.00000000000000 ]
      - [  0.25591961977535,  0.00000000000000 ]
      - [ -0.36192501363669, -0.00000000000000 ]

- q-position: [    0.0350930,    0.0350930,    1.0000000 ]
  distance:    0.0123778
  band:
  - # 1
    frequency:    0.2967897373
    eigenvector:
    - # atom 1
      - [  0.31334515660874,  0.00000000000000 ]
      - [  0.18090979849017,  0.00000000000599 ]
      - [  0.51173940471146,  0.00000000000423 ]
    - # atom 2
      - [ -0.38959342346680, -0.00000000000000 ]
      - [ -0.22493172862578, -0.00000000000744 ]
      - [ -0.63626403415130, -0.00000000000527 ]
  - # 2
    frequency:    0.2968328273
    eigenvector:
    - # atom 1
      - [ -0.31336498632804,  0.00000000000000 ]
      - [  0.54276418969912,  0.00000000000599 ]
      - [  0.00000007920133,  0.00000000000423 ]
    - # atom 2
      - [  0.38961815655402, -0.00000000000000 ]
      - [ -0.67483858203819, -0.00000000000744 ]
      - [ -0.00000009847413, -0.00000000000526 ]
  - # 3
    frequency:    0.6885863941
    eigenvector:
    - # atom 1
      - [ -0.44319892204795,  0.00000000000000 ]
      - [ -0.25588101691685,  0.00000000000000 ]
      - [  0.36183594627583,  0.00000000000000 ]
    - # atom 2
      - [  0.55100505455228,  0.00000000000000 ]
      - [  0.31812291653012, -0.00000000000000 ]
      - [ -0.44985065132332, -0.00000000000000 ]
  - # 4
    frequency:    5.5132761417
    eigenvector:
    - # atom 1
      - [  0.38962955330165,  0.00000000000000 ]
      - [  0.22492647576683, -0.00000000009540 ]
      - [  0.63624376696908, -0.00000000006746 ]
    - # atom 2
      - [  0.31337415566171,  0.00000000000000 ]
      - [  0.18090553920290, -0.00000000007673 ]
      - [  0.51172315282297, -0.00000000005425 ]
  - # 5
    frequency:    5.5132764138
    eigenvector:
    - # atom 1
      - [ -0.38960684938049,  0.00000000000000 ]
      - [  0.67484510985493, -0.00000000009540 ]
      - [  0.00001856275012, -0.00000000006746 ]
    - # atom 2
      - [ -0.31335589211025,  0.00000000000000 ]
      - [  0.54276943994022, -0.00000000007673 ]
      - [  0.00001492979467, -0.00000000005426 ]
  - # 6
    frequency:    7.9834769073
    eigenvector:
    - # atom 1
      - [  0.55098750237984,  0.00000000000000 ]
      - [  0.31811278279268,  0.00000000000000 ]
      - [ -0.44987931525760,  0.00000000000000 ]
    - # atom 2
      - [  0.44318484831479,  0.00000000000000 ]
      - [  0.25587289145426,  0.00000000000000 ]
      - [ -0.36185892968326, -0.00000000000000 ]

- q-position: [    0.0400920,    0.0400920,    1.0000000 ]
  distance:    0.0141461
  band:
  - # 1
    frequency:    0.3387131342
    eigenvector:
    - # atom 1
      - [  0.31328568077233,  0.00000000000000 ]
      - [  0.18087545863652,  0.00000000000721 ]
      - [  0.51162986307086,  0.00000000000510 ]
    - # atom 2
      - [ -0.38965162337703, -0.00000000000000 ]
      - [ -0.22496532849214, -0.00000000000897 ]
      - [ -0.63634365501371, -0.00000000000634 ]
  - # 2
    frequency:    0.3387500627
    eigenvector:
    - # atom 1
      - [ -0.31330044136337,  0.00000000000000 ]
      - [  0.54265239599905,  0.00000000000721 ]
      - [  0.00000008023808,  0.00000000000510 ]
    - # atom 2
      - [  0.38967005914089, -0.00000000000000 ]
      - [ -0.67492848181650, -0.00000000000897 ]
      - [ -0.00000009979700, -0.00000000000634 ]
  - # 3
    frequency:    0.7861750371
    eigenvector:
    - # atom 1
      - [ -0.44310255561258,  0.00000000000000 ]
      - [ -0.25582537973448,  0.00000000000000 ]
      - [  0.36176603909714,  0.00000000000000 ]
    - # atom 2
      - [  0.55107522016634,  0.00000000000000 ]
      - [  0.31816342667254, -0.00000000000000 ]
      - [ -0.44991884701121, -0.00000000000000 ]
  - # 4
    frequency:    5.5143862933
    eigenvector:
    - # atom 1
      - [  0.38968152307697,  0.00000000000000 ]
      - [  0.22495632908153, -0.00000000009703 ]
      - [  0.63632852716560, -0.00000000006861 ]
    - # atom 2
      - [  0.31330966168344,  0.00000000000000 ]
      - [  0.18086818898054, -0.00000000007801 ]
      - [  0.51161774813286, -0.00000000005516 ]
  - # 5
    frequency:    5.5143865628
    eigenvector:
    - # atom 1
      - [ -0.38965868719174,  0.00000000000000 ]
      - [  0.67493504702708, -0.00000000009704 ]
      - [  0.00001866984077, -0.00000000006862 ]
    - # atom 2
      - [ -0.31329129814927,  0.00000000000000 ]
      - [  0.54265767452476, -0.00000000007802 ]
      - [  0.00001501083367, -0.00000000005517 ]
  - # 6
    frequency:    7.9724374473
    eigenvector:
    - # atom 1
      - [ -0.55106211895081,  0.00000000000000 ]
      - [ -0.31815586268988, -0.00000000000000 ]
      - [  0.44994024196192, -0.00000000000000 ]
    - # atom 2
      - [ -0.44309206439199, -0.00000000000000 ]
      - [ -0.25581932263136, -0.00000000000000 ]
      - [  0.36178317180049,  0.00000000000000 ]

- q-position: [    0.0450910,    0.0450910,    1.0000000 ]
  distance:    0.0159143
  band:
  - # 1
    frequency:    0.3804882724
    eigenvector:
    - # atom 1
      - [  0.31321942133049,  0.00000000000000 ]
      - [  0.18083720243034,  0.00000000000638 ]
      - [  0.51151327067454,  0.00000000000452 ]
    - # atom 2
      - [ -0.38971189497731, -0.00000000000000 ]
      - [ -0.22500012464811, -0.00000000000794 ]
      - [ -0.63643165938216, -0.00000000000562 ]
  - # 2
    frequency:    0.3805204280
    eigenvector:
    - # atom 1
      - [ -0.31323075685459,  0.00000000000000 ]
      - [  0.54253170018528,  0.00000000000638 ]
      - [  0.00000008115832,  0.00000000000451 ]
    - # atom 2
      - [  0.38972607507895, -0.00000000000000 ]
      - [ -0.67502550593138, -0.00000000000794 ]
      - [ -0.00000010097853, -0.00000000000562 ]
  - # 3
    frequency:    0.8835610265
    eigenvector:
    - # atom 1
      - [ -0.44299572782211,  0.00000000000000 ]
      - [ -0.25576370268433,  0.00000000000000 ]
      - [  0.36168474313979,  0.00000000000000 ]
    - # atom 2
      - [  0.55115614621338,  0.00000000000000 ]
      - [  0.31821014935183, -0.00000000000000 ]
      - [ -0.44999229264640, -0.00000000000000 ]
  - # 4
    frequency:    5.5156171507
    eigenvector:
    - # atom 1
      - [  0.38973759789309,  0.00000000000000 ]
      - [  0.22498857140668, -0.00000000009273 ]
      - [  0.63642000422035, -0.00000000006557 ]
    - # atom 2
      - [  0.31324002112362,  0.00000000000000 ]
      - [  0.18082788327587, -0.00000000007453 ]
      - [  0.51150395066853, -0.00000000005270 ]
  - # 5
    frequency:    5.5156174176
    eigenvector:
    - # atom 1
      - [ -0.38971464648091,  0.00000000000000 ]
      - [  0.67503210384437, -0.00000000009274 ]
      - [  0.00001876352180, -0.00000000006557 ]
    - # atom 2
      - [ -0.31322157145814,  0.00000000000000 ]
      - [  0.54253700306200, -0.00000000007453 ]
      - [  0.00001508063112, -0.00000000005270 ]
  - # 6
    frequency:    7.9599391821
    eigenvector:
    - # atom 1
      - [ -0.55114605260297,  0.00000000000000 ]
      - [ -0.31820432180640, -0.00000000000000 ]
      - [  0.45000877589202, -0.00000000000000 ]
    - # atom 2
      - [ -0.44298765687966, -0.00000000000000 ]
      - [ -0.25575904292589, -0.00000000000000 ]
      - [  0.36169792329782,  0.00000000000000 ]

- q-position: [    0.0500900,    0.0500900,    1.0000000 ]
  distance:    0.0176826
  band:
  - # 1
    frequency:    0.4220988583
    eigenvector:
    - # atom 1
      - [  0.31314822488184,  0.00000000000000 ]
      - [  0.18079609507424,  0.00000000000605 ]
      - [  0.51139109250495,  0.00000000000428 ]
    - # atom 2
      - [ -0.38977404512073, -0.00000000000000 ]
      - [ -0.22503600442172, -0.00000000000753 ]
      - [ -0.63652580641321, -0.00000000000533 ]
  - # 2
    frequency:    0.4221272130
    eigenvector:
    - # atom 1
      - [ -0.31315714583977,  0.00000000000000 ]
      - [  0.54240420423220,  0.00000000000605 ]
      - [  0.00000008262109,  0.00000000000428 ]
    - # atom 2
      - [  0.38978522445006, -0.00000000000000 ]
      - [ -0.67512795827245, -0.00000000000753 ]
      - [ -0.00000010283830, -0.00000000000532 ]
  - # 3
    frequency:    0.9807189805
    eigenvector:
    - # atom 1
      - [ -0.44287823448493,  0.00000000000000 ]
      - [ -0.25569586787698, -0.00000000000000 ]
      - [  0.36159298757785,  0.00000000000000 ]
    - # atom 2
      - [  0.55124707095181,  0.00000000000000 ]
      - [  0.31826264477715,  0.00000000000000 ]
      - [ -0.45007172718488, -0.00000000000000 ]
  - # 4
    frequency:    5.5169592825
    eigenvector:
    - # atom 1
      - [  0.38979680898711,  0.00000000000000 ]
      - [  0.22502261882259, -0.00000000010762 ]
      - [  0.63651659875531, -0.00000000007610 ]
    - # atom 2
      - [  0.31316645605038,  0.00000000000000 ]
      - [  0.18078530773761, -0.00000000008646 ]
      - [  0.51138374196070, -0.00000000006114 ]
  - # 5
    frequency:    5.5169595468
    eigenvector:
    - # atom 1
      - [ -0.38977373717689,  0.00000000000000 ]
      - [  0.67513459005752, -0.00000000010762 ]
      - [  0.00001886119101, -0.00000000007610 ]
    - # atom 2
      - [ -0.31314791685533,  0.00000000000000 ]
      - [  0.54240953227135, -0.00000000008647 ]
      - [  0.00001515326740, -0.00000000006114 ]
  - # 6
    frequency:    7.9459857469
    eigenvector:
    - # atom 1
      - [ -0.55123909711938,  0.00000000000000 ]
      - [ -0.31825804108282,  0.00000000000000 ]
      - [  0.45008474867999, -0.00000000000000 ]
    - # atom 2
      - [ -0.44287186893244, -0.00000000000000 ]
      - [ -0.25569219272326, -0.00000000000000 ]
      - [  0.36160338271022,  0.00000000000000 ]

- q-position: [    0.0550890,    0.0550890,    1.0000000 ]
  distance:    0.0194508
  band:
  - # 1
    frequency:    0.4635288037
    eigenvector:
    - # atom 1
      - [  0.31307376133708,  0.00000000000000 ]
      - [  0.18075310161974,  0.00000000000770 ]
      - [  0.51126518253430,  0.00000000000545 ]
    - # atom 2
      - [ -0.38983745761966, -0.00000000000000 ]
      - [ -0.22507261321235, -0.00000000000959 ]
      - [ -0.63662400580222, -0.00000000000678 ]
  - # 2
    frequency:    0.4635540642
    eigenvector:
    - # atom 1
      - [ -0.31308092235924,  0.00000000000000 ]
      - [  0.54227218319608,  0.00000000000770 ]
      - [  0.00000008397017,  0.00000000000545 ]
    - # atom 2
      - [  0.38984644914095, -0.00000000000000 ]
      - [ -0.67523400497799, -0.00000000000959 ]
      - [ -0.00000010455935, -0.00000000000678 ]
  - # 3
    frequency:    1.0776233377
    eigenvector:
    - # atom 1
      - [ -0.44275008109533,  0.00000000000000 ]
      - [ -0.25562187848484,  0.00000000000000 ]
      - [  0.36149139464449,  0.00000000000000 ]
    - # atom 2
      - [  0.55134746252913,  0.00000000000000 ]
      - [  0.31832060588363, -0.00000000000000 ]
      - [ -0.45015748351049, -0.00000000000000 ]
  - # 4
    frequency:    5.5184025142
    eigenvector:
    - # atom 1
      - [  0.38985808861739,  0.00000000000000 ]
      - [  0.22505787594973, -0.00000000012168 ]
      - [  0.63661658206538, -0.00000000008604 ]
    - # atom 2
      - [  0.31309027283506,  0.00000000000000 ]
      - [  0.18074123339264, -0.00000000009772 ]
      - [  0.51125926716272, -0.00000000006910 ]
  - # 5
    frequency:    5.5184027760
    eigenvector:
    - # atom 1
      - [ -0.38983490979474,  0.00000000000000 ]
      - [  0.67524066682386, -0.00000000012168 ]
      - [  0.00001894794157, -0.00000000008604 ]
    - # atom 2
      - [ -0.31307165525099,  0.00000000000000 ]
      - [  0.54227753324328, -0.00000000009772 ]
      - [  0.00001521686803, -0.00000000006910 ]
  - # 6
    frequency:    7.9305813126
    eigenvector:
    - # atom 1
      - [ -0.55134103380026,  0.00000000000000 ]
      - [ -0.31831689425278, -0.00000000000000 ]
      - [  0.45016798176515, -0.00000000000000 ]
    - # atom 2
      - [ -0.44274495821634, -0.00000000000000 ]
      - [ -0.25561892078701, -0.00000000000000 ]
      - [  0.36149976042109,  0.00000000000000 ]

- q-position: [    0.0600880,    0.0600880,    1.0000000 ]
  distance:    0.0212191
  band:
  - # 1
    frequency:    0.5047623382
    eigenvector:
    - # atom 1
      - [  0.31299764492959,  0.00000000000000 ]
      - [  0.18070915371280,  0.00000000001340 ]
      - [  0.51113765450437,  0.00000000000948 ]
    - # atom 2
      - [ -0.38990127018856, -0.00000000000000 ]
      - [ -0.22510945276669, -0.00000000001669 ]
      - [ -0.63672420086026, -0.00000000001180 ]
  - # 2
    frequency:    0.5047850343
    eigenvector:
    - # atom 1
      - [ -0.31300348722537,  0.00000000000000 ]