nqpoint: 404    
npath: 4      
segment_nqpoint:
- 101
- 101
- 101
- 101
labels:
- [ '$\Gamma$', 'X' ]
- [ 'X', 'K' ]
- [ 'K', '$\Gamma$' ]
- [ '$\Gamma$', 'L' ]
reciprocal_lattice:
- [   0.25011959,  -0.14440661,  -0.10211090 ] # a*
- [   0.00000000,   0.28881323,  -0.10211090 ] # b*
- [   0.00000000,  -0.00000000,   0.30633269 ] # c*
natom: 2      
lattice:
- [     3.998087430433594,    -0.000000000000381,    -0.000000000000269 ] # a
- [     1.999043715266137,     3.462445281334601,     0.000000000000099 ] # b
- [     1.999043715266137,     1.154148427078513,     3.264424717202195 ] # c
points:
- symbol: Na # 1
  coordinates: [  0.000000000000000,  0.000000000000000,  0.000000000000000 ]
  mass: 22.989769
- symbol: Cl # 2
  coordinates: [  0.500000000000000,  0.500000000000000,  0.500000000000000 ]
  mass: 35.453000

phonon:
- q-position: [    0.0001000,    0.0001000,    1.0000000 ]
  distance:    0.0000000
  band:
  - # 1
    frequency:   -0.0075108333
    eigenvector:
    - # atom 1
      - [  0.01758262274614, -0.00000000000000 ]
      - [  0.01015117181332,  0.00000000000001 ]
      - [  0.62686560510943,  0.00000000000005 ]
    - # atom 2
      - [ -0.02183433385241, -0.00000000000000 ]
      - [ -0.01260585963487, -0.00000000000002 ]
      - [ -0.77845466944907, -0.00000000000006 ]
  - # 2
    frequency:   -0.0035356966
    eigenvector:
    - # atom 1
      - [ -0.31359517889552,  0.00000000000000 ]
      - [  0.54316709950041, -0.00000000000020 ]
      - [  0.00000006887471,  0.00000000000001 ]
    - # atom 2
      - [  0.38942917659354, -0.00000000000000 ]
      - [ -0.67451648031124,  0.00000000000025 ]
      - [ -0.00000008553018, -0.00000000000002 ]
  - # 3
    frequency:   -0.0032169623
    eigenvector:
    - # atom 1
      - [  0.54288242290577,  0.00000000000000 ]
      - [  0.31343082466760, -0.00000000000011 ]
      - [ -0.02030249194088,  0.00000000000001 ]
    - # atom 2
      - [ -0.67416301317540, -0.00000000000000 ]
      - [ -0.38922510706622,  0.00000000000014 ]
      - [  0.02521209163670, -0.00000000000001 ]
  - # 4
    frequency:    5.5094777318
    eigenvector:
    - # atom 1
      - [  0.38944221138983,  0.00000000000000 ]
      - [  0.22481973818134, -0.00000000000026 ]
      - [  0.63593883724763, -0.00000000000018 ]
    - # atom 2
      - [  0.31360567542799,  0.00000000000000 ]
      - [  0.18104032839746, -0.00000000000021 ]
      - [  0.51210206446088, -0.00000000000015 ]
  - # 5
    frequency:    5.5094780233
    eigenvector:
    - # atom 1
      - [ -0.38942074701909,  0.00000000000000 ]
      - [  0.67452134679095, -0.00000000000026 ]
      - [  0.00001755560529, -0.00000000000018 ]
    - # atom 2
      - [ -0.31358839082167,  0.00000000000000 ]
      - [  0.54317101832501, -0.00000000000021 ]
      - [  0.00001413699080, -0.00000000000015 ]
  - # 6
    frequency:    8.0197007186
    eigenvector:
    - # atom 1
      - [  0.55073935380515,  0.00000000000000 ]
      - [  0.31796951414672,  0.00000000000000 ]
      - [ -0.44967668043129, -0.00000000000000 ]
    - # atom 2
      - [  0.44349319209026,  0.00000000000000 ]
      - [  0.25605091381637,  0.00000000000000 ]
      - [ -0.36211069222446, -0.00000000000000 ]

- q-position: [    0.0050990,    0.0050990,    1.0000000 ]
  distance:    0.0017683
  band:
  - # 1
    frequency:    0.0427936557
    eigenvector:
    - # atom 1
      - [ -0.31247732895780,  0.00000000000000 ]
      - [ -0.18040876974715, -0.00000000000065 ]
      - [ -0.51300108925657, -0.00000000000046 ]
    - # atom 2
      - [  0.38805158705088,  0.00000000000000 ]
      - [  0.22404156375703,  0.00000000000080 ]
      - [  0.63707285345076,  0.00000000000057 ]
  - # 2
    frequency:    0.0431349103
    eigenvector:
    - # atom 1
      - [ -0.31359177547726,  0.00000000000000 ]
      - [  0.54315698930901,  0.00000000000064 ]
      - [  0.00000007049381,  0.00000000000046 ]
    - # atom 2
      - [  0.38943565371258, -0.00000000000000 ]
      - [ -0.67452246436663, -0.00000000000080 ]
      - [ -0.00000008754334, -0.00000000000057 ]
  - # 3
    frequency:    0.1001247458
    eigenvector:
    - # atom 1
      - [ -0.44427258892268,  0.00000000000000 ]
      - [ -0.25650089777739, -0.00000000000000 ]
      - [  0.36081840122618, -0.00000000000000 ]
    - # atom 2
      - [  0.55172078207825,  0.00000000000000 ]
      - [  0.31853614076982,  0.00000000000000 ]
      - [ -0.44808274141541,  0.00000000000000 ]
  - # 4
    frequency:    5.5095605056
    eigenvector:
    - # atom 1
      - [ -0.38944653338680,  0.00000000000000 ]
      - [ -0.22482197797949,  0.00000000000979 ]
      - [ -0.63594571584366,  0.00000000000692 ]
    - # atom 2
      - [ -0.31360053707441, -0.00000000000000 ]
      - [ -0.18103715657019,  0.00000000000788 ]
      - [ -0.51209352020711,  0.00000000000558 ]
  - # 5
    frequency:    5.5095607941
    eigenvector:
    - # atom 1
      - [  0.38942484682726,  0.00000000000000 ]
      - [ -0.67452870337501,  0.00000000000979 ]
      - [ -0.00001773627674,  0.00000000000692 ]
    - # atom 2
      - [  0.31358307326834, -0.00000000000000 ]
      - [ -0.54316201325002,  0.00000000000789 ]
      - [ -0.00001428208721,  0.00000000000558 ]
  - # 6
    frequency:    8.0189354527
    eigenvector:
    - # atom 1
      - [  0.55074465070387,  0.00000000000000 ]
      - [  0.31797257231262,  0.00000000000000 ]
      - [ -0.44968100909830, -0.00000000000000 ]
    - # atom 2
      - [  0.44348661235029,  0.00000000000000 ]
      - [  0.25604711500172,  0.00000000000000 ]
      - [ -0.36210531976162, -0.00000000000000 ]

- q-position: [    0.0100980,    0.0100980,    1.0000000 ]
  distance:    0.0035365
  band:
  - # 1
    frequency:    0.0854612277
    eigenvector:
    - # atom 1
      - [  0.31330024462490,  0.00000000000000 ]
      - [  0.18088387866895,  0.00000000000202 ]
      - [  0.51229421840339,  0.00000000000143 ]
    - # atom 2
      - [ -0.38910461815202, -0.00000000000000 ]
      - [ -0.22464952947499, -0.00000000000251 ]
      - [ -0.63624586284356, -0.00000000000178 ]
  - # 2
    frequency:    0.0856285539
    eigenvector:
    - # atom 1
      - [  0.31357657549845,  0.00000000000000 ]
      - [ -0.54313066302258, -0.00000000000202 ]
      - [ -0.00000007195216, -0.00000000000143 ]
    - # atom 2
      - [ -0.38944789219935,  0.00000000000000 ]
      - [  0.67454366311217,  0.00000000000251 ]
      - [  0.00000008936155,  0.00000000000178 ]
  - # 3
    frequency:    0.1984614540
    eigenvector:
    - # atom 1
      - [ -0.44366271001199,  0.00000000000000 ]
      - [ -0.25614878478428,  0.00000000000000 ]
      - [  0.36177048551062, -0.00000000000000 ]
    - # atom 2
      - [  0.55100274332839,  0.00000000000000 ]
      - [  0.31812158184827, -0.00000000000000 ]
      - [ -0.44929717517330,  0.00000000000000 ]
  - # 4
    frequency:    5.5098017893
    eigenvector:
    - # atom 1
      - [ -0.38945887267899,  0.00000000000000 ]
      - [ -0.22482887240069,  0.00000000002555 ]
      - [ -0.63596570481737,  0.00000000001807 ]
    - # atom 2
      - [ -0.31358541819968, -0.00000000000000 ]
      - [ -0.18102824436927,  0.00000000002057 ]
      - [ -0.51206869378620,  0.00000000001455 ]
  - # 5
    frequency:    5.5098020749
    eigenvector:
    - # atom 1
      - [  0.38943698632113,  0.00000000000000 ]
      - [ -0.67454995926771,  0.00000000002555 ]
      - [ -0.00001789867974,  0.00000000001807 ]
    - # atom 2
      - [  0.31356779427743, -0.00000000000000 ]
      - [ -0.54313573257610,  0.00000000002058 ]
      - [ -0.00001441171004,  0.00000000001455 ]
  - # 6
    frequency:    8.0166987116
    eigenvector:
    - # atom 1
      - [  0.55076011832574,  0.00000000000000 ]
      - [  0.31798150254824,  0.00000000000000 ]
      - [ -0.44969364191598, -0.00000000000000 ]
    - # atom 2
      - [  0.44346740142130,  0.00000000000000 ]
      - [  0.25603602356667,  0.00000000000000 ]
      - [ -0.36208963397498, -0.00000000000000 ]

- q-position: [    0.0150970,    0.0150970,    1.0000000 ]
  distance:    0.0053048
  band:
  - # 1
    frequency:    0.1279246188
    eigenvector:
    - # atom 1
      - [  0.31343149060928,  0.00000000000000 ]
      - [  0.18095965138715,  0.00000000000170 ]
      - [  0.51212611703249,  0.00000000000120 ]
    - # atom 2
      - [ -0.38931862777847, -0.00000000000000 ]
      - [ -0.22477308525832, -0.00000000000211 ]
      - [ -0.63612043806630, -0.00000000000149 ]
  - # 2
    frequency:    0.1280339376
    eigenvector:
    - # atom 1
      - [ -0.31355164826680,  0.00000000000000 ]
      - [  0.54308748982378,  0.00000000000170 ]
      - [  0.00000007355212,  0.00000000000120 ]
    - # atom 2
      - [  0.38946796004254, -0.00000000000000 ]
      - [ -0.67457842417792, -0.00000000000211 ]
      - [ -0.00000009136059, -0.00000000000149 ]
  - # 3
    frequency:    0.2967015712
    eigenvector:
    - # atom 1
      - [ -0.44352059586879,  0.00000000000000 ]
      - [ -0.25606673528904, -0.00000000000000 ]
      - [  0.36192485868153,  0.00000000000000 ]
    - # atom 2
      - [  0.55089133208664,  0.00000000000000 ]
      - [  0.31805725871616,  0.00000000000000 ]
      - [ -0.44954201716495, -0.00000000000000 ]
  - # 4
    frequency:    5.5101996642
    eigenvector:
    - # atom 1
      - [  0.38947903481428,  0.00000000000000 ]
      - [  0.22484029982450, -0.00000000002486 ]
      - [  0.63599848002018, -0.00000000001758 ]
    - # atom 2
      - [  0.31356056624745,  0.00000000000000 ]
      - [  0.18101372712354, -0.00000000002002 ]
      - [  0.51202798391729, -0.00000000001415 ]
  - # 5
    frequency:    5.5101999470
    eigenvector:
    - # atom 1
      - [ -0.38945696294812,  0.00000000000000 ]
      - [  0.67458477299115, -0.00000000002486 ]
      - [  0.00001804942815, -0.00000000001758 ]
    - # atom 2
      - [ -0.31354279476019,  0.00000000000000 ]
      - [  0.54309260110661, -0.00000000002002 ]
      - [  0.00001453118582, -0.00000000001415 ]
  - # 6
    frequency:    8.0129910733
    eigenvector:
    - # atom 1
      - [  0.55078571246463,  0.00000000000000 ]
      - [  0.31799627933117,  0.00000000000000 ]
      - [ -0.44971454280222, -0.00000000000000 ]
    - # atom 2
      - [  0.44343561149884,  0.00000000000000 ]
      - [  0.25601766964635,  0.00000000000000 ]
      - [ -0.36206367748235, -0.00000000000000 ]

- q-position: [    0.0200960,    0.0200960,    1.0000000 ]
  distance:    0.0070730
  band:
  - # 1
    frequency:    0.1702896721
    eigenvector:
    - # atom 1
      - [  0.31345149261067,  0.00000000000000 ]
      - [  0.18097119738736,  0.00000000000353 ]
      - [  0.51202590427274,  0.00000000000250 ]
    - # atom 2
      - [ -0.38941357505581, -0.00000000000000 ]
      - [ -0.22482790038687, -0.00000000000438 ]
      - [ -0.63611048067131, -0.00000000000310 ]
  - # 2
    frequency:    0.1703699740
    eigenvector:
    - # atom 1
      - [ -0.31351739633208,  0.00000000000000 ]
      - [  0.54302816583906,  0.00000000000353 ]
      - [  0.00000007509909,  0.00000000000250 ]
    - # atom 2
      - [  0.38949553112345, -0.00000000000000 ]
      - [ -0.67462618133116, -0.00000000000438 ]
      - [ -0.00000009329890, -0.00000000000310 ]
  - # 3
    frequency:    0.3948542959
    eigenvector:
    - # atom 1
      - [ -0.44343796860973,  0.00000000000000 ]
      - [ -0.25601903046950, -0.00000000000000 ]
      - [  0.36195134488684, -0.00000000000000 ]
    - # atom 2
      - [  0.55087936135663,  0.00000000000000 ]
      - [  0.31805034747496,  0.00000000000000 ]
      - [ -0.44964892268269,  0.00000000000000 ]
  - # 4
    frequency:    5.5107509723
    eigenvector:
    - # atom 1
      - [  0.38950669360587,  0.00000000000000 ]
      - [  0.22485607070654, -0.00000000004713 ]
      - [  0.63604350793189, -0.00000000003333 ]
    - # atom 2
      - [  0.31352638373040,  0.00000000000000 ]
      - [  0.18099383621836, -0.00000000003794 ]
      - [  0.51197204716296, -0.00000000002683 ]
  - # 5
    frequency:    5.5107512524
    eigenvector:
    - # atom 1
      - [ -0.38948444946417,  0.00000000000000 ]
      - [  0.67463257896233, -0.00000000004713 ]
      - [  0.00001818938492, -0.00000000003333 ]
    - # atom 2
      - [ -0.31350847635028,  0.00000000000000 ]
      - [  0.54303331549689, -0.00000000003794 ]
      - [  0.00001464122548, -0.00000000002683 ]
  - # 6
    frequency:    8.0078135034
    eigenvector:
    - # atom 1
      - [  0.55082136054658,  0.00000000000000 ]
      - [  0.31801686076082,  0.00000000000000 ]
      - [ -0.44974365251232, -0.00000000000000 ]
    - # atom 2
      - [  0.44339132827546,  0.00000000000000 ]
      - [  0.25599210271537,  0.00000000000000 ]
      - [ -0.36202752025199, -0.00000000000000 ]

- q-position: [    0.0250950,    0.0250950,    1.0000000 ]
  distance:    0.0088413
  band:
  - # 1
    frequency:    0.2125628881
    eigenvector:
    - # atom 1
      - [  0.31343330527866,  0.00000000000000 ]
      - [  0.18096069480781,  0.00000000000420 ]
      - [  0.51193537961170,  0.00000000000297 ]
    - # atom 2
      - [ -0.38947903903184, -0.00000000000000 ]
      - [ -0.22486569336869, -0.00000000000523 ]
      - [ -0.63614185153883, -0.00000000000370 ]
  - # 2
    frequency:    0.2126257956
    eigenvector:
    - # atom 1
      - [ -0.31347437565552,  0.00000000000000 ]
      - [  0.54295365393472,  0.00000000000420 ]
      - [  0.00000007660604,  0.00000000000297 ]
    - # atom 2
      - [  0.38953015405686, -0.00000000000000 ]
      - [ -0.67468615264191, -0.00000000000522 ]
      - [ -0.00000009519257, -0.00000000000369 ]
  - # 3
    frequency:    0.4929014750
    eigenvector:
    - # atom 1
      - [ -0.44336375683612,  0.00000000000000 ]
      - [ -0.25597618430565, -0.00000000000000 ]
      - [  0.36193375477775,  0.00000000000000 ]
    - # atom 2
      - [  0.55090316327606,  0.00000000000000 ]
      - [  0.31806408954889,  0.00000000000000 ]
      - [ -0.44972176840445, -0.00000000000000 ]
  - # 4
    frequency:    5.5114513510
    eigenvector:
    - # atom 1
      - [  0.38954140249166,  0.00000000000000 ]
      - [  0.22487591597831, -0.00000000004896 ]
      - [  0.63610005137113, -0.00000000003462 ]
    - # atom 2
      - [  0.31348343051782,  0.00000000000000 ]
      - [  0.18096888579961, -0.00000000003940 ]
      - [  0.51190179132976, -0.00000000002786 ]
  - # 5
    frequency:    5.5114516284
    eigenvector:
    - # atom 1
      - [ -0.38951898956766,  0.00000000000000 ]
      - [  0.67469259808942, -0.00000000004896 ]
      - [  0.00001832650197, -0.00000000003462 ]
    - # atom 2
      - [ -0.31346539103306,  0.00000000000000 ]
      - [  0.54295884090847, -0.00000000003940 ]
      - [  0.00001474826005, -0.00000000002786 ]
  - # 6
    frequency:    8.0011673646
    eigenvector:
    - # atom 1
      - [  0.55086696269123,  0.00000000000000 ]
      - [  0.31804318917123, -0.00000000000000 ]
      - [ -0.44978088950519, -0.00000000000000 ]
    - # atom 2
      - [  0.44333466968304,  0.00000000000000 ]
      - [  0.25595939086171,  0.00000000000000 ]
      - [ -0.36198125857534, -0.00000000000000 ]

- q-position: [    0.0300940,    0.0300940,    1.0000000 ]
  distance:    0.0106096
  band:
  - # 1
    frequency:    0.2547343710
    eigenvector:
    - # atom 1
      - [  0.31339553872936,  0.00000000000000 ]
      - [  0.18093888857525,  0.00000000000754 ]
      - [  0.51184108387506,  0.00000000000533 ]
    - # atom 2
      - [ -0.38953668432063, -0.00000000000000 ]
      - [ -0.22489897273611, -0.00000000000937 ]
      - [ -0.63619547577300, -0.00000000000663 ]
  - # 2
    frequency:    0.2547857049
    eigenvector:
    - # atom 1
      - [ -0.31342329060590,  0.00000000000000 ]
      - [  0.54286517372481,  0.00000000000754 ]
      - [  0.00000007781657,  0.00000000000533 ]
    - # atom 2
      - [  0.38957125771451, -0.00000000000000 ]
      - [ -0.67475734840402, -0.00000000000937 ]
      - [ -0.00000009672277, -0.00000000000662 ]
  - # 3
    frequency:    0.5908202595
    eigenvector:
    - # atom 1
      - [ -0.44328545709331,  0.00000000000000 ]
      - [ -0.25593097794083, -0.00000000000000 ]
      - [  0.36189288569947,  0.00000000000000 ]
    - # atom 2
      - [  0.55094690077130,  0.00000000000000 ]
      - [  0.31808934141939,  0.00000000000000 ]
      - [ -0.44978612778277, -0.00000000000000 ]
  - # 4
    frequency:    5.5122952800
    eigenvector:
    - # atom 1
      - [ -0.38958258424806,  0.00000000000000 ]
      - [ -0.22489951597454,  0.00000000007829 ]
      - [ -0.63616717735215,  0.00000000005536 ]
    - # atom 2
      - [ -0.31343240610683, -0.00000000000000 ]
      - [ -0.18093929060058,  0.00000000006299 ]
      - [ -0.51181836636043,  0.00000000004454 ]
  - # 5
    frequency:    5.5122955547
    eigenvector:
    - # atom 1
      - [  0.38956001780815,  0.00000000000000 ]
      - [ -0.67476383738858,  0.00000000007830 ]
      - [ -0.00001845116624,  0.00000000005536 ]
    - # atom 2
      - [  0.31341424771976, -0.00000000000000 ]
      - [ -0.54287039433312,  0.00000000006299 ]
      - [ -0.00001484459728,  0.00000000004454 ]
  - # 6
    frequency:    7.9930544313
    eigenvector:
    - # atom 1
      - [  0.55092239318783,  0.00000000000000 ]
      - [  0.31807519198326, -0.00000000000000 ]
      - [ -0.44982615114850,  0.00000000000000 ]
    - # atom 2
      - [  0.44326578414092,  0.00000000000000 ]
      - [  0.25591961977535,  0.00000000000000 ]
      - [ -0.36192501363669, -0.00000000000000 ]

- q-position: [    0.0350930,    0.0350930,    1.0000000 ]
  distance:    0.0123778
  band:
  - # 1
    frequency:    0.2967897373
    eigenvector:
    - # atom 1
      - [  0.31334515651665,  0.00000000000000 ]
      - [  0.18090979864971,  0.00000000000876 ]
      - [  0.51173940471145,  0.00000000000619 ]
    - # atom 2
      - [ -0.38959342335229, -0.00000000000000 ]
      - [ -0.22493172882414, -0.00000000001089 ]
      - [ -0.63626403415129, -0.00000000000770 ]
  - # 2
    frequency:    0.2968328273
    eigenvector:
    - # atom 1
      - [ -0.31336498642013,  0.00000000000000 ]
      - [  0.54276418964595,  0.00000000000876 ]
      - [  0.00000007905092,  0.00000000000619 ]
    - # atom 2
      - [  0.38961815666853, -0.00000000000000 ]
      - [ -0.67483858197208, -0.00000000001089 ]
      - [ -0.00000009828711, -0.00000000000770 ]
  - # 3
    frequency:    0.6885863941
    eigenvector:
    - # atom 1
      - [ -0.44319892204795,  0.00000000000000 ]
      - [ -0.25588101691685, -0.00000000000000 ]
      - [  0.36183594627584, -0.00000000000000 ]
    - # atom 2
      - [  0.55100505455228,  0.00000000000000 ]
      - [  0.31812291653011,  0.00000000000000 ]
      - [ -0.44985065132333,  0.00000000000000 ]
  - # 4
    frequency:    5.5132761417
    eigenvector:
    - # atom 1
      - [ -0.38962955333046,  0.00000000000000 ]
      - [ -0.22492647571693,  0.00000000010504 ]
      - [ -0.63624376696908,  0.00000000007428 ]
    - # atom 2
      - [ -0.31337415568488, -0.00000000000000 ]
      - [ -0.18090553916276,  0.00000000008448 ]
      - [ -0.51172315282297,  0.00000000005974 ]
  - # 5
    frequency:    5.5132764138
    eigenvector:
    - # atom 1
      - [  0.38960684935168,  0.00000000000000 ]
      - [ -0.67484510987156,  0.00000000010505 ]
      - [ -0.00001856279717,  0.00000000007428 ]
    - # atom 2
      - [  0.31335589208708, -0.00000000000000 ]
      - [ -0.54276943995359,  0.00000000008449 ]
      - [ -0.00001492983251,  0.00000000005974 ]
  - # 6
    frequency:    7.9834769073
    eigenvector:
    - # atom 1
      - [  0.55098750237984,  0.00000000000000 ]
      - [  0.31811278279268, -0.00000000000000 ]
      - [ -0.44987931525760, -0.00000000000000 ]
    - # atom 2
      - [  0.44318484831479,  0.00000000000000 ]
      - [  0.25587289145426,  0.00000000000000 ]
      - [ -0.36185892968326, -0.00000000000000 ]

- q-position: [    0.0400920,    0.0400920,    1.0000000 ]
  distance:    0.0141461
  band:
  - # 1
    frequency:    0.3387131342
    eigenvector:
    - # atom 1
      - [  0.31328568085095,  0.00000000000000 ]
      - [  0.18087545850039,  0.00000000000969 ]
      - [  0.51162986307084,  0.00000000000685 ]
    - # atom 2
      - [ -0.38965162347481, -0.00000000000000 ]
      - [ -0.22496532832282, -0.00000000001205 ]
      - [ -0.63634365501370, -0.00000000000852 ]
  - # 2
    frequency:    0.3387500627
    eigenvector:
    - # atom 1
      - [ -0.31330044128478,  0.00000000000000 ]
      - [  0.54265239604442,  0.00000000000969 ]
      - [  0.00000008036645,  0.00000000000685 ]
    - # atom 2
      - [  0.38967005904315, -0.00000000000000 ]
      - [ -0.67492848187294, -0.00000000001205 ]
      - [ -0.00000009995666, -0.00000000000852 ]
  - # 3
    frequency:    0.7861750371
    eigenvector:
    - # atom 1
      - [ -0.44310255561256,  0.00000000000000 ]
      - [ -0.25582537973449, -0.00000000000000 ]
      - [  0.36176603909716, -0.00000000000000 ]
    - # atom 2
      - [  0.55107522016631,  0.00000000000000 ]
      - [  0.31816342667254,  0.00000000000000 ]
      - [ -0.44991884701123,  0.00000000000000 ]
  - # 4
    frequency:    5.5143862933
    eigenvector:
    - # atom 1
      - [  0.38968152319638,  0.00000000000000 ]
      - [  0.22495632887469, -0.00000000011302 ]
      - [  0.63632852716560, -0.00000000007992 ]
    - # atom 2
      - [  0.31330966177945,  0.00000000000000 ]
      - [  0.18086818881424, -0.00000000009087 ]
      - [  0.51161774813285, -0.00000000006425 ]
  - # 5
    frequency:    5.5143865628
    eigenvector:
    - # atom 1
      - [ -0.38965868707232,  0.00000000000000 ]
      - [  0.67493504709602, -0.00000000011303 ]
      - [  0.00001867003578, -0.00000000007992 ]
    - # atom 2
      - [ -0.31329129805325,  0.00000000000000 ]
      - [  0.54265767458019, -0.00000000009087 ]
      - [  0.00001501099045, -0.00000000006426 ]
  - # 6
    frequency:    7.9724374473
    eigenvector:
    - # atom 1
      - [ -0.55106211895081,  0.00000000000000 ]
      - [ -0.31815586268988,  0.00000000000000 ]
      - [  0.44994024196192,  0.00000000000000 ]
    - # atom 2
      - [ -0.44309206439199, -0.00000000000000 ]
      - [ -0.25581932263136, -0.00000000000000 ]
      - [  0.36178317180049,  0.00000000000000 ]

- q-position: [    0.0450910,    0.0450910,    1.0000000 ]
  distance:    0.0159143
  band:
  - # 1
    frequency:    0.3804882724
    eigenvector:
    - # atom 1
      - [  0.31321942156804,  0.00000000000000 ]
      - [  0.18083720201892,  0.00000000001019 ]
      - [  0.51151327067453,  0.00000000000720 ]
    - # atom 2
      - [ -0.38971189527287, -0.00000000000000 ]
      - [ -0.22500012413622, -0.00000000001268 ]
      - [ -0.63643165938214, -0.00000000000896 ]
  - # 2
    frequency:    0.3805204280
    eigenvector:
    - # atom 1
      - [ -0.31323075661707,  0.00000000000000 ]
      - [  0.54253170032240,  0.00000000001019 ]
      - [  0.00000008154623,  0.00000000000720 ]
    - # atom 2
      - [  0.38972607478343, -0.00000000000000 ]
      - [ -0.67502550610200, -0.00000000001267 ]
      - [ -0.00000010146118, -0.00000000000896 ]
  - # 3
    frequency:    0.8835610265
    eigenvector:
    - # atom 1
      - [ -0.44299572782209,  0.00000000000000 ]
      - [ -0.25576370268434, -0.00000000000000 ]
      - [  0.36168474313980, -0.00000000000000 ]
    - # atom 2
      - [  0.55115614621336,  0.00000000000000 ]
      - [  0.31821014935185,  0.00000000000000 ]
      - [ -0.44999229264642,  0.00000000000000 ]
  - # 4
    frequency:    5.5156171507
    eigenvector:
    - # atom 1
      - [  0.38973760166475,  0.00000000000000 ]
      - [  0.22498856487371, -0.00000000011769 ]
      - [  0.63642000422017, -0.00000000008322 ]
    - # atom 2
      - [  0.31324002415498,  0.00000000000000 ]
      - [  0.18082787802520, -0.00000000009459 ]
      - [  0.51150395066838, -0.00000000006688 ]
  - # 5
    frequency:    5.5156174176
    eigenvector:
    - # atom 1
      - [ -0.38971464270903,  0.00000000000000 ]
      - [  0.67503210602181, -0.00000000011770 ]
      - [  0.00001876968108, -0.00000000008322 ]
    - # atom 2
      - [ -0.31322156842660,  0.00000000000000 ]
      - [  0.54253700481205, -0.00000000009459 ]
      - [  0.00001508558146, -0.00000000006689 ]
  - # 6
    frequency:    7.9599391821
    eigenvector:
    - # atom 1
      - [ -0.55114605260297,  0.00000000000000 ]
      - [ -0.31820432180640,  0.00000000000000 ]
      - [  0.45000877589202,  0.00000000000000 ]
    - # atom 2
      - [ -0.44298765687966, -0.00000000000000 ]
      - [ -0.25575904292589, -0.00000000000000 ]
      - [  0.36169792329782,  0.00000000000000 ]

- q-position: [    0.0500900,    0.0500900,    1.0000000 ]
  distance:    0.0176826
  band:
  - # 1
    frequency:    0.4220988583
    eigenvector:
    - # atom 1
      - [  0.31314822497488,  0.00000000000000 ]
      - [  0.18079609491309,  0.00000000000632 ]
      - [  0.51139109250495,  0.00000000000447 ]
    - # atom 2
      - [ -0.38977404523654, -0.00000000000000 ]
      - [ -0.22503600422114, -0.00000000000787 ]
      - [ -0.63652580641320, -0.00000000000556 ]
  - # 2
    frequency:    0.4221272130
    eigenvector:
    - # atom 1
      - [ -0.31315714574674,  0.00000000000000 ]
      - [  0.54240420428591,  0.00000000000632 ]
      - [  0.00000008277303,  0.00000000000447 ]
    - # atom 2
      - [  0.38978522433427, -0.00000000000000 ]
      - [ -0.67512795833930, -0.00000000000787 ]
      - [ -0.00000010302742, -0.00000000000556 ]
  - # 3
    frequency:    0.9807189805
    eigenvector:
    - # atom 1
      - [ -0.44287823448492,  0.00000000000000 ]
      - [ -0.25569586787698, -0.00000000000000 ]
      - [  0.36159298757786, -0.00000000000000 ]
    - # atom 2
      - [  0.55124707095180,  0.00000000000000 ]
      - [  0.31826264477716,  0.00000000000000 ]
      - [ -0.45007172718489,  0.00000000000000 ]
  - # 4
    frequency:    5.5169592825
    eigenvector:
    - # atom 1
      - [  0.38979681141745,  0.00000000000000 ]
      - [  0.22502261461294, -0.00000000008340 ]
      - [  0.63651659875520, -0.00000000005897 ]
    - # atom 2
      - [  0.31316645800294,  0.00000000000000 ]
      - [  0.18078530435554, -0.00000000006700 ]
      - [  0.51138374196060, -0.00000000004738 ]
  - # 5
    frequency:    5.5169595468
    eigenvector:
    - # atom 1
      - [ -0.38977373474641,  0.00000000000000 ]
      - [  0.67513459146059, -0.00000000008340 ]
      - [  0.00001886515985, -0.00000000005897 ]
    - # atom 2
      - [ -0.31314791490265,  0.00000000000000 ]
      - [  0.54240953339860, -0.00000000006701 ]
      - [  0.00001515645601, -0.00000000004738 ]
  - # 6
    frequency:    7.9459857469
    eigenvector:
    - # atom 1
      - [ -0.55123909711937,  0.00000000000000 ]
      - [ -0.31825804108282,  0.00000000000000 ]
      - [  0.45008474867999,  0.00000000000000 ]
    - # atom 2
      - [ -0.44287186893244, -0.00000000000000 ]
      - [ -0.25569219272326, -0.00000000000000 ]
      - [  0.36160338271022,  0.00000000000000 ]

- q-position: [    0.0550890,    0.0550890,    1.0000000 ]
  distance:    0.0194508
  band:
  - # 1
    frequency:    0.4635288037
    eigenvector:
    - # atom 1
      - [  0.31307376137870,  0.00000000000000 ]
      - [  0.18075310154766,  0.00000000001383 ]
      - [  0.51126518253430,  0.00000000000978 ]
    - # atom 2
      - [ -0.38983745767148, -0.00000000000000 ]
      - [ -0.22507261312259, -0.00000000001723 ]
      - [ -0.63662400580222, -0.00000000001218 ]
  - # 2
    frequency:    0.4635540642
    eigenvector:
    - # atom 1
      - [ -0.31308092231762,  0.00000000000000 ]
      - [  0.54227218322011,  0.00000000001383 ]
      - [  0.00000008403813,  0.00000000000978 ]
    - # atom 2
      - [  0.38984644908913, -0.00000000000000 ]
      - [ -0.67523400500790, -0.00000000001723 ]
      - [ -0.00000010464398, -0.00000000001218 ]
  - # 3
    frequency:    1.0776233377
    eigenvector:
    - # atom 1
      - [ -0.44275008109534,  0.00000000000000 ]
      - [ -0.25562187848484, -0.00000000000000 ]
      - [  0.36149139464449, -0.00000000000000 ]
    - # atom 2
      - [  0.55134746252913,  0.00000000000000 ]
      - [  0.31832060588363,  0.00000000000000 ]
      - [ -0.45015748351049,  0.00000000000000 ]
  - # 4
    frequency:    5.5184025142
    eigenvector:
    - # atom 1
      - [  0.38985809100321,  0.00000000000000 ]
      - [  0.22505787181720, -0.00000000016845 ]
      - [  0.63661658206526, -0.00000000011911 ]
    - # atom 2
      - [  0.31309027475108,  0.00000000000000 ]
      - [  0.18074123007386, -0.00000000013528 ]
      - [  0.51125926716263, -0.00000000009566 ]
  - # 5
    frequency:    5.5184027760
    eigenvector:
    - # atom 1
      - [ -0.38983490740877,  0.00000000000000 ]
      - [  0.67524066820124, -0.00000000016846 ]
      - [  0.00001895183772, -0.00000000011912 ]
    - # atom 2
      - [ -0.31307165333485,  0.00000000000000 ]
      - [  0.54227753434944, -0.00000000013529 ]
      - [  0.00001521999697, -0.00000000009566 ]
  - # 6
    frequency:    7.9305813126
    eigenvector:
    - # atom 1
      - [ -0.55134103380026,  0.00000000000000 ]
      - [ -0.31831689425278,  0.00000000000000 ]
      - [  0.45016798176516,  0.00000000000000 ]
    - # atom 2
      - [ -0.44274495821634, -0.00000000000000 ]
      - [ -0.25561892078702, -0.00000000000000 ]
      - [  0.36149976042109,  0.00000000000000 ]

- q-position: [    0.0600880,    0.0600880,    1.0000000 ]
  distance:    0.0212191
  band:
  - # 1
    frequency:    0.5047623382
    eigenvector:
    - # atom 1
      - [  0.31299764501545,  0.00000000000000 ]
      - [  0.18070915356410,  0.00000000000617 ]
      - [  0.51113765450436,  0.00000000000436 ]
    - # atom 2
      - [ -0.38990127029551, -0.00000000000000 ]
      - [ -0.22510945258145, -0.00000000000769 ]
      - [ -0.63672420086026, -0.00000000000544 ]
  - # 2
    frequency:    0.5047850343
    eigenvector:
    - # atom 1
      - [ -0.31300348713952,  0.00000000000000 ]
      - [  0.54213806373654,  0.00000000000617 ]