nqpoint: 404    
npath: 4      
segment_nqpoint:
- 101
- 101
- 101
- 101
labels:
- [ '$\Gamma$', 'X' ]
- [ 'X', 'K' ]
- [ 'K', '$\Gamma$' ]
- [ '$\Gamma$', 'L' ]
reciprocal_lattice:
- [   0.25011959,  -0.14440661,  -0.10211090 ] # a*
- [   0.00000000,   0.28881323,  -0.10211090 ] # b*
- [   0.00000000,  -0.00000000,   0.30633269 ] # c*
natom: 2      
lattice:
- [     3.998087430433594,    -0.000000000000381,    -0.000000000000269 ] # a
- [     1.999043715266137,     3.462445281334601,     0.000000000000099 ] # b
- [     1.999043715266137,     1.154148427078513,     3.264424717202195 ] # c
points:
- symbol: Na # 1
  coordinates: [  0.000000000000000,  0.000000000000000,  0.000000000000000 ]
  mass: 22.989769
- symbol: Cl # 2
  coordinates: [  0.500000000000000,  0.500000000000000,  0.500000000000000 ]
  mass: 35.453000

phonon:
- q-position: [    0.0001000,    0.0001000,    1.0000000 ]
  distance:    0.0000000
  band:
  - # 1
    frequency:   -0.0075143207
    eigenvector:
    - # atom 1
      - [  0.01632579952337, -0.00000000000000 ]
      - [  0.00942570470589,  0.00000000000000 ]
      - [  0.62691093246431,  0.00000000000006 ]
    - # atom 2
      - [ -0.02027357918691,  0.00000000000000 ]
      - [ -0.01170495634678, -0.00000000000001 ]
      - [ -0.77851093961570, -0.00000000000008 ]
  - # 2
    frequency:   -0.0035331457
    eigenvector:
    - # atom 1
      - [ -0.31359704491207,  0.00000000000000 ]
      - [  0.54316602271299,  0.00000000000027 ]
      - [ -0.00000000007977, -0.00000000000000 ]
    - # atom 2
      - [  0.38943149336213,  0.00000000000000 ]
      - [ -0.67451514228393, -0.00000000000033 ]
      - [  0.00000000009906,  0.00000000000000 ]
  - # 3
    frequency:   -0.0032391176
    eigenvector:
    - # atom 1
      - [  0.54292059630605,  0.00000000000000 ]
      - [  0.31345534790923,  0.00000000000015 ]
      - [ -0.01885131589908, -0.00000000000000 ]
    - # atom 2
      - [ -0.67421041356814,  0.00000000000000 ]
      - [ -0.38925555815513, -0.00000000000019 ]
      - [  0.02340998813049,  0.00000000000000 ]
  - # 4
    frequency:    5.3994542341
    eigenvector:
    - # atom 1
      - [ -0.38944147061944,  0.00000000000000 ]
      - [ -0.22482102083285, -0.00000000000002 ]
      - [ -0.63593883015564, -0.00000000000001 ]
    - # atom 2
      - [ -0.31360507930358,  0.00000000000000 ]
      - [ -0.18104136150486, -0.00000000000001 ]
      - [ -0.51210207333419, -0.00000000000001 ]
  - # 5
    frequency:    5.3994545315
    eigenvector:
    - # atom 1
      - [  0.38942148744313, -0.00000000000000 ]
      - [ -0.67452091890686, -0.00000000000002 ]
      - [ -0.00001634621568, -0.00000000000001 ]
    - # atom 2
      - [  0.31358898745733,  0.00000000000000 ]
      - [ -0.54317067444740, -0.00000000000001 ]
      - [ -0.00001316310712, -0.00000000000001 ]
  - # 6
    frequency:    7.9445176596
    eigenvector:
    - # atom 1
      - [  0.55073935203359,  0.00000000000000 ]
      - [  0.31796951312473,  0.00000000000000 ]
      - [ -0.44967667793501,  0.00000000000000 ]
    - # atom 2
      - [  0.44349319428989, -0.00000000000000 ]
      - [  0.25605091508675, -0.00000000000000 ]
      - [ -0.36211069532391, -0.00000000000000 ]

- q-position: [    0.0050990,    0.0050990,    1.0000000 ]
  distance:    0.0017683
  band:
  - # 1
    frequency:    0.0433381896
    eigenvector:
    - # atom 1
      - [ -0.31238552893635,  0.00000000000000 ]
      - [ -0.18035586978058,  0.00000000000053 ]
      - [ -0.51306744358856,  0.00000000000038 ]
    - # atom 2
      - [  0.38794443550662, -0.00000000000000 ]
      - [  0.22397982496362, -0.00000000000066 ]
      - [  0.63716637767938, -0.00000000000047 ]
  - # 2
    frequency:    0.0436752352
    eigenvector:
    - # atom 1
      - [ -0.31358848266752,  0.00000000000000 ]
      - [  0.54315118411068, -0.00000000000053 ]
      - [ -0.00000000040188, -0.00000000000038 ]
    - # atom 2
      - [  0.38943839552572,  0.00000000000000 ]
      - [ -0.67452708680067,  0.00000000000065 ]
      - [  0.00000000049909,  0.00000000000047 ]
  - # 3
    frequency:    0.0973151408
    eigenvector:
    - # atom 1
      - [ -0.44433924432233,  0.00000000000000 ]
      - [ -0.25653938230817, -0.00000000000000 ]
      - [  0.36072000531786,  0.00000000000000 ]
    - # atom 2
      - [  0.55179437461181, -0.00000000000000 ]
      - [  0.31857863070350,  0.00000000000000 ]
      - [ -0.44795299223170, -0.00000000000000 ]
  - # 4
    frequency:    5.3996178599
    eigenvector:
    - # atom 1
      - [  0.38944846999361,  0.00000000000000 ]
      - [  0.22482482911382,  0.00000000000453 ]
      - [  0.63595009712668,  0.00000000000321 ]
    - # atom 2
      - [  0.31359659576280, -0.00000000000000 ]
      - [  0.18103627690262,  0.00000000000365 ]
      - [  0.51208807930801,  0.00000000000258 ]
  - # 5
    frequency:    5.3996181543
    eigenvector:
    - # atom 1
      - [ -0.38942828429936,  0.00000000000000 ]
      - [  0.67453292421682,  0.00000000000453 ]
      - [  0.00001651083697,  0.00000000000321 ]
    - # atom 2
      - [ -0.31358034077863, -0.00000000000000 ]
      - [  0.54315588458835,  0.00000000000365 ]
      - [  0.00001329507272,  0.00000000000258 ]
  - # 6
    frequency:    7.9438119443
    eigenvector:
    - # atom 1
      - [  0.55074102935209,  0.00000000000000 ]
      - [  0.31797048152500,  0.00000000000000 ]
      - [ -0.44967805125994,  0.00000000000000 ]
    - # atom 2
      - [  0.44349110949341, -0.00000000000000 ]
      - [  0.25604971142894, -0.00000000000000 ]
      - [ -0.36210899292821, -0.00000000000000 ]

- q-position: [    0.0100980,    0.0100980,    1.0000000 ]
  distance:    0.0035365
  band:
  - # 1
    frequency:    0.0865302222
    eigenvector:
    - # atom 1
      - [  0.31326521202554,  0.00000000000000 ]
      - [  0.18086375457070, -0.00000000000005 ]
      - [  0.51229076074875, -0.00000000000003 ]
    - # atom 2
      - [ -0.38908787944245,  0.00000000000000 ]
      - [ -0.22463999203389,  0.00000000000006 ]
      - [ -0.63628522041505,  0.00000000000004 ]
  - # 2
    frequency:    0.0866954884
    eigenvector:
    - # atom 1
      - [  0.31356355210530,  0.00000000000000 ]
      - [ -0.54310800358552,  0.00000000000005 ]
      - [  0.00000000006271,  0.00000000000003 ]
    - # atom 2
      - [ -0.38945846868999,  0.00000000000000 ]
      - [  0.67456185513124, -0.00000000000006 ]
      - [ -0.00000000007789, -0.00000000000004 ]
  - # 3
    frequency:    0.1929125091
    eigenvector:
    - # atom 1
      - [ -0.44369578733837,  0.00000000000000 ]
      - [ -0.25616788224588, -0.00000000000000 ]
      - [  0.36175958607269, -0.00000000000000 ]
    - # atom 2
      - [  0.55100778329934, -0.00000000000000 ]
      - [  0.31812449199826,  0.00000000000000 ]
      - [ -0.44925415593265,  0.00000000000000 ]
  - # 4
    frequency:    5.4000954255
    eigenvector:
    - # atom 1
      - [  0.38946863578927,  0.00000000000000 ]
      - [  0.22483626055429, -0.00000000000080 ]
      - [  0.63598287989570, -0.00000000000057 ]
    - # atom 2
      - [  0.31357173937891, -0.00000000000000 ]
      - [  0.18102175841353, -0.00000000000065 ]
      - [  0.51204736245757, -0.00000000000046 ]
  - # 5
    frequency:    5.4000957170
    eigenvector:
    - # atom 1
      - [ -0.38944826622679,  0.00000000000000 ]
      - [  0.67456774521751, -0.00000000000080 ]
      - [  0.00001666023953, -0.00000000000057 ]
    - # atom 2
      - [ -0.31355533782605, -0.00000000000000 ]
      - [  0.54311274585339, -0.00000000000065 ]
      - [  0.00001341361847, -0.00000000000046 ]
  - # 6
    frequency:    7.9417492158
    eigenvector:
    - # atom 1
      - [  0.55074593388719,  0.00000000000000 ]
      - [  0.31797331315964,  0.00000000000000 ]
      - [ -0.44968205939085,  0.00000000000000 ]
    - # atom 2
      - [  0.44348501706805, -0.00000000000000 ]
      - [  0.25604619396550, -0.00000000000000 ]
      - [ -0.36210401831371, -0.00000000000000 ]

- q-position: [    0.0150970,    0.0150970,    1.0000000 ]
  distance:    0.0053048
  band:
  - # 1
    frequency:    0.1295194021
    eigenvector:
    - # atom 1
      - [  0.31339280527498,  0.00000000000000 ]
      - [  0.18093741987437,  0.00000000000079 ]
      - [  0.51208633678182,  0.00000000000056 ]
    - # atom 2
      - [ -0.38933021071145,  0.00000000000000 ]
      - [ -0.22477990119609, -0.00000000000099 ]
      - [ -0.63616834754498, -0.00000000000070 ]
  - # 2
    frequency:    0.1296273740
    eigenvector:
    - # atom 1
      - [ -0.31352257138476,  0.00000000000000 ]
      - [  0.54303702358828,  0.00000000000080 ]
      - [  0.00000000042761,  0.00000000000056 ]
    - # atom 2
      - [  0.38949145920941, -0.00000000000000 ]
      - [ -0.67461899724778, -0.00000000000099 ]
      - [ -0.00000000053123, -0.00000000000070 ]
  - # 3
    frequency:    0.2884304605
    eigenvector:
    - # atom 1
      - [ -0.44356660324457,  0.00000000000000 ]
      - [ -0.25609329777459, -0.00000000000000 ]
      - [  0.36194598196142, -0.00000000000000 ]
    - # atom 2
      - [  0.55086804730512, -0.00000000000000 ]
      - [  0.31804381538442,  0.00000000000000 ]
      - [ -0.44950252882154,  0.00000000000000 ]
  - # 4
    frequency:    5.4008848524
    eigenvector:
    - # atom 1
      - [  0.38950171757042,  0.00000000000000 ]
      - [  0.22485515245065, -0.00000000001162 ]
      - [  0.63603675669944, -0.00000000000822 ]
    - # atom 2
      - [  0.31353083090030, -0.00000000000000 ]
      - [  0.18099797664530, -0.00000000000936 ]
      - [  0.51198043622644, -0.00000000000662 ]
  - # 5
    frequency:    5.4008851411
    eigenvector:
    - # atom 1
      - [ -0.38948116710232,  0.00000000000000 ]
      - [  0.67462493908453, -0.00000000001163 ]
      - [  0.00001680723212, -0.00000000000822 ]
    - # atom 2
      - [ -0.31351428671554, -0.00000000000000 ]
      - [  0.54304180649149, -0.00000000000936 ]
      - [  0.00001352905149, -0.00000000000662 ]
  - # 6
    frequency:    7.9383298836
    eigenvector:
    - # atom 1
      - [  0.55075407198000,  0.00000000000000 ]
      - [  0.31797801168967,  0.00000000000000 ]
      - [ -0.44968870751680,  0.00000000000000 ]
    - # atom 2
      - [  0.44347490886042, -0.00000000000000 ]
      - [  0.25604035798907, -0.00000000000000 ]
      - [ -0.36209576482373, -0.00000000000000 ]

- q-position: [    0.0200960,    0.0200960,    1.0000000 ]
  distance:    0.0070730
  band:
  - # 1
    frequency:    0.1724095926
    eigenvector:
    - # atom 1
      - [  0.31339485357743,  0.00000000000000 ]
      - [  0.18093860167234, -0.00000000000007 ]
      - [  0.51194625605899, -0.00000000000005 ]
    - # atom 2
      - [ -0.38944841825458,  0.00000000000000 ]
      - [ -0.22484814737099,  0.00000000000009 ]
      - [ -0.63618327487137,  0.00000000000006 ]
  - # 2
    frequency:    0.1724889036
    eigenvector:
    - # atom 1
      - [ -0.31346605836109, -0.00000000000000 ]
      - [  0.54293914094977, -0.00000000000007 ]
      - [  0.00000000098630, -0.00000000000005 ]
    - # atom 2
      - [  0.38953694211818, -0.00000000000000 ]
      - [ -0.67469777693832,  0.00000000000009 ]
      - [ -0.00000000122566,  0.00000000000006 ]
  - # 3
    frequency:    0.3838881730
    eigenvector:
    - # atom 1
      - [ -0.44351107790903,  0.00000000000000 ]
      - [ -0.25606124020728, -0.00000000000000 ]
      - [  0.36200205576267, -0.00000000000000 ]
    - # atom 2
      - [  0.55082803124740, -0.00000000000000 ]
      - [  0.31802071210286,  0.00000000000000 ]
      - [ -0.44959579994122,  0.00000000000000 ]
  - # 4
    frequency:    5.4019827083
    eigenvector:
    - # atom 1
      - [ -0.38954728373987,  0.00000000000000 ]
      - [ -0.22488127078548,  0.00000000000042 ]
      - [ -0.63611103347106,  0.00000000000030 ]
    - # atom 2
      - [ -0.31347438285973,  0.00000000000000 ]
      - [ -0.18096523969943,  0.00000000000034 ]
      - [ -0.51188814616907,  0.00000000000024 ]
  - # 5
    frequency:    5.4019829942
    eigenvector:
    - # atom 1
      - [  0.38952656846232, -0.00000000000000 ]
      - [ -0.67470376585229,  0.00000000000042 ]
      - [ -0.00001694109125,  0.00000000000030 ]
    - # atom 2
      - [  0.31345771052885,  0.00000000000000 ]
      - [ -0.54294396031623,  0.00000000000034 ]
      - [ -0.00001363275173,  0.00000000000024 ]
  - # 6
    frequency:    7.9335546298
    eigenvector:
    - # atom 1
      - [  0.55076545459167,  0.00000000000000 ]
      - [  0.31798458344352,  0.00000000000000 ]
      - [ -0.44969800459882,  0.00000000000000 ]
    - # atom 2
      - [  0.44346077079833, -0.00000000000000 ]
      - [  0.25603219537507, -0.00000000000000 ]
      - [ -0.36208422096923, -0.00000000000000 ]

- q-position: [    0.0250950,    0.0250950,    1.0000000 ]
  distance:    0.0088413
  band:
  - # 1
    frequency:    0.2152064643
    eigenvector:
    - # atom 1
      - [  0.31335032826328,  0.00000000000000 ]
      - [  0.18091289415190, -0.00000000000143 ]
      - [  0.51180789359945, -0.00000000000101 ]
    - # atom 2
      - [ -0.38953909405124,  0.00000000000000 ]
      - [ -0.22490049804865,  0.00000000000178 ]
      - [ -0.63624982258495,  0.00000000000126 ]
  - # 2
    frequency:    0.2152685940
    eigenvector:
    - # atom 1
      - [ -0.31339472910770,  0.00000000000000 ]
      - [  0.54281559587704, -0.00000000000143 ]
      - [  0.00000000156500, -0.00000000000101 ]
    - # atom 2
      - [  0.38959433032484, -0.00000000000000 ]
      - [ -0.67479717724581,  0.00000000000178 ]
      - [ -0.00000000194552,  0.00000000000126 ]
  - # 3
    frequency:    0.4792765217
    eigenvector:
    - # atom 1
      - [ -0.44347394306233,  0.00000000000000 ]
      - [ -0.25603980039364, -0.00000000000000 ]
      - [  0.36201815197749, -0.00000000000000 ]
    - # atom 2
      - [  0.55081914394053, -0.00000000000000 ]
      - [  0.31801558101395,  0.00000000000000 ]
      - [ -0.44964619533464,  0.00000000000000 ]
  - # 4
    frequency:    5.4033842271
    eigenvector:
    - # atom 1
      - [  0.38960475476807,  0.00000000000000 ]
      - [  0.22491426341852,  0.00000000000952 ]
      - [  0.63620475143873,  0.00000000000673 ]
    - # atom 2
      - [  0.31340311744296, -0.00000000000000 ]
      - [  0.18092395036293,  0.00000000000766 ]
      - [  0.51177166156589,  0.00000000000541 ]
  - # 5
    frequency:    5.4033845103
    eigenvector:
    - # atom 1
      - [ -0.38958387557960,  0.00000000000000 ]
      - [  0.67480321297176,  0.00000000000952 ]
      - [  0.00001707422572,  0.00000000000673 ]
    - # atom 2
      - [ -0.31338631917503, -0.00000000000000 ]
      - [  0.54282045109328,  0.00000000000766 ]
      - [  0.00001373473687,  0.00000000000541 ]
  - # 6
    frequency:    7.9274244145
    eigenvector:
    - # atom 1
      - [  0.55078009797018,  0.00000000000000 ]
      - [  0.31799303780196,  0.00000000000000 ]
      - [ -0.44970996391380,  0.00000000000000 ]
    - # atom 2
      - [  0.44344258206002, -0.00000000000000 ]
      - [  0.25602169410205, -0.00000000000000 ]
      - [ -0.36206936974999, -0.00000000000000 ]

- q-position: [    0.0300940,    0.0300940,    1.0000000 ]
  distance:    0.0106096
  band:
  - # 1
    frequency:    0.2578993830
    eigenvector:
    - # atom 1
      - [  0.31327946461888,  0.00000000000000 ]
      - [  0.18087198055470, -0.00000000000290 ]
      - [  0.51165696234117, -0.00000000000205 ]
    - # atom 2
      - [ -0.38962549731619,  0.00000000000000 ]
      - [ -0.22495038243226,  0.00000000000361 ]
      - [ -0.63634719601082,  0.00000000000255 ]
  - # 2
    frequency:    0.2579500807
    eigenvector:
    - # atom 1
      - [ -0.31330949099023,  0.00000000000000 ]
      - [  0.54266795957999, -0.00000000000290 ]
      - [  0.00000000188529, -0.00000000000205 ]
    - # atom 2
      - [  0.38966288121353, -0.00000000000000 ]
      - [ -0.67491591143275,  0.00000000000361 ]
      - [ -0.00000000234475,  0.00000000000255 ]
  - # 3
    frequency:    0.5745813226
    eigenvector:
    - # atom 1
      - [ -0.44344151406028,  0.00000000000000 ]
      - [ -0.25602107750053, -0.00000000000000 ]
      - [  0.36201656551313, -0.00000000000000 ]
    - # atom 2
      - [  0.55082444964397, -0.00000000000000 ]
      - [  0.31801864426319,  0.00000000000000 ]
      - [ -0.44968144875333, -0.00000000000000 ]
  - # 4
    frequency:    5.4050833374
    eigenvector:
    - # atom 1
      - [ -0.38967337903337,  0.00000000000000 ]
      - [ -0.22495371671025, -0.00000000002741 ]
      - [ -0.63631669757513, -0.00000000001938 ]
    - # atom 2
      - [ -0.31331793480772,  0.00000000000000 ]
      - [ -0.18087464461105, -0.00000000002204 ]
      - [ -0.51163246384753, -0.00000000001558 ]
  - # 5
    frequency:    5.4050836178
    eigenvector:
    - # atom 1
      - [  0.38965235442100, -0.00000000000000 ]
      - [ -0.67492198875080, -0.00000000002741 ]
      - [ -0.00001719227459, -0.00000000001938 ]
    - # atom 2
      - [  0.31330102689419,  0.00000000000000 ]
      - [ -0.54267284606402, -0.00000000002204 ]
      - [ -0.00001382350303, -0.00000000001558 ]
  - # 6
    frequency:    7.9199404826
    eigenvector:
    - # atom 1
      - [  0.55079802457740,  0.00000000000000 ]
      - [  0.31800338773336,  0.00000000000000 ]
      - [ -0.44972460381149,  0.00000000000000 ]
    - # atom 2
      - [  0.44342031391759, -0.00000000000000 ]
      - [  0.25600883758394, -0.00000000000000 ]
      - [ -0.36205118771037, -0.00000000000000 ]

- q-position: [    0.0350930,    0.0350930,    1.0000000 ]
  distance:    0.0123778
  band:
  - # 1
    frequency:    0.3004731452
    eigenvector:
    - # atom 1
      - [  0.31318995668505,  0.00000000000000 ]
      - [  0.18082030129244, -0.00000000000285 ]
      - [  0.51148985189835, -0.00000000000202 ]
    - # atom 2
      - [ -0.38971493937614,  0.00000000000000 ]
      - [ -0.22500201954760,  0.00000000000355 ]
      - [ -0.63646724841400,  0.00000000000251 ]
  - # 2
    frequency:    0.3005156998
    eigenvector:
    - # atom 1
      - [ -0.31321143263631,  0.00000000000000 ]
      - [  0.54249811936126, -0.00000000000285 ]
      - [  0.00000000318118, -0.00000000000202 ]
    - # atom 2
      - [  0.38974170336121, -0.00000000000000 ]
      - [ -0.67505243767910,  0.00000000000355 ]
      - [ -0.00000000395847,  0.00000000000251 ]
  - # 3
    frequency:    0.6697866648
    eigenvector:
    - # atom 1
      - [ -0.44340908549330,  0.00000000000000 ]
      - [ -0.25600235485876, -0.00000000000000 ]
      - [  0.36200489078259, -0.00000000000000 ]
    - # atom 2
      - [  0.55083818227011, -0.00000000000000 ]
      - [  0.31802657279871,  0.00000000000000 ]
      - [ -0.44971105412867,  0.00000000000000 ]
  - # 4
    frequency:    5.4070726984
    eigenvector:
    - # atom 1
      - [  0.38975227441393,  0.00000000000000 ]
      - [  0.22499910205676,  0.00000000002740 ]
      - [  0.63644541773114,  0.00000000001938 ]
    - # atom 2
      - [  0.31321993110993, -0.00000000000000 ]
      - [  0.18081793968249,  0.00000000002202 ]
      - [  0.51147233195582,  0.00000000001557 ]
  - # 5
    frequency:    5.4070729762
    eigenvector:
    - # atom 1
      - [ -0.38973110614112,  0.00000000000000 ]
      - [  0.67505855565412,  0.00000000002741 ]
      - [  0.00001730889253,  0.00000000001938 ]
    - # atom 2
      - [ -0.31320291630228,  0.00000000000000 ]
      - [  0.54250303600151,  0.00000000002202 ]
      - [  0.00001391010032,  0.00000000001557 ]
  - # 6
    frequency:    7.9111043732
    eigenvector:
    - # atom 1
      - [  0.55081926427342,  0.00000000000000 ]
      - [  0.31801565047745,  0.00000000000000 ]
      - [ -0.44974194868160,  0.00000000000000 ]
    - # atom 2
      - [  0.44339392825879, -0.00000000000000 ]
      - [  0.25599360381664, -0.00000000000000 ]
      - [ -0.36202964373235, -0.00000000000000 ]

- q-position: [    0.0400920,    0.0400920,    1.0000000 ]
  distance:    0.0141461
  band:
  - # 1
    frequency:    0.3429109345
    eigenvector:
    - # atom 1
      - [  0.31308581053154,  0.00000000000000 ]
      - [  0.18076017113941, -0.00000000000132 ]
      - [  0.51130637983016, -0.00000000000093 ]
    - # atom 2
      - [ -0.38980980075141,  0.00000000000000 ]
      - [ -0.22505678611247,  0.00000000000164 ]
      - [ -0.63660551676946,  0.00000000000116 ]
  - # 2
    frequency:    0.3429474029
    eigenvector:
    - # atom 1
      - [ -0.31310181568910,  0.00000000000000 ]
      - [  0.54230825858260, -0.00000000000132 ]
      - [  0.00000000413102, -0.00000000000093 ]
    - # atom 2
      - [  0.38982976920090, -0.00000000000000 ]
      - [ -0.67520497386354,  0.00000000000164 ]
      - [ -0.00000000514336,  0.00000000000116 ]
  - # 3
    frequency:    0.7648757045
    eigenvector:
    - # atom 1
      - [ -0.44337466699061, -0.00000000000000 ]
      - [ -0.25598248332698, -0.00000000000000 ]
      - [  0.36198625839855,  0.00000000000000 ]
    - # atom 2
      - [  0.55085797004169, -0.00000000000000 ]
      - [  0.31803799727396,  0.00000000000000 ]
      - [ -0.44973898070198, -0.00000000000000 ]
  - # 4
    frequency:    5.4093437444
    eigenvector:
    - # atom 1
      - [  0.38984040917543,  0.00000000000000 ]
      - [  0.22504983108720,  0.00000000000935 ]
      - [  0.63658923225891,  0.00000000000661 ]
    - # atom 2
      - [  0.31311036469769, -0.00000000000000 ]
      - [  0.18075456783967,  0.00000000000751 ]
      - [  0.51129332481223,  0.00000000000531 ]
  - # 5
    frequency:    5.4093440196
    eigenvector:
    - # atom 1
      - [ -0.38981910532866,  0.00000000000000 ]
      - [  0.67521113031602,  0.00000000000935 ]
      - [  0.00001741891680,  0.00000000000661 ]
    - # atom 2
      - [ -0.31309325072543,  0.00000000000000 ]
      - [  0.54231320329598,  0.00000000000751 ]
      - [  0.00001399045948,  0.00000000000531 ]
  - # 6
    frequency:    7.9009179306
    eigenvector:
    - # atom 1
      - [ -0.55084385575375,  0.00000000000000 ]
      - [ -0.31802984837510, -0.00000000000000 ]
      - [  0.44976203012726, -0.00000000000000 ]
    - # atom 2
      - [ -0.44336337579183,  0.00000000000000 ]
      - [ -0.25597596434152,  0.00000000000000 ]
      - [  0.36200469756973,  0.00000000000000 ]

- q-position: [    0.0450910,    0.0450910,    1.0000000 ]
  distance:    0.0159143
  band:
  - # 1
    frequency:    0.3851953196
    eigenvector:
    - # atom 1
      - [  0.31296975102810,  0.00000000000000 ]
      - [  0.18069316268485, -0.00000000000637 ]
      - [  0.51110779978931, -0.00000000000451 ]
    - # atom 2
      - [ -0.38991054626871,  0.00000000000000 ]
      - [ -0.22511494972927,  0.00000000000794 ]
      - [ -0.63675879123237,  0.00000000000562 ]
  - # 2
    frequency:    0.3852270734
    eigenvector:
    - # atom 1
      - [ -0.31298205978063,  0.00000000000000 ]
      - [  0.54210083673366, -0.00000000000637 ]
      - [  0.00000000516974, -0.00000000000451 ]
    - # atom 2
      - [  0.38992592268372, -0.00000000000000 ]
      - [ -0.67537151841589,  0.00000000000794 ]
      - [ -0.00000000644069,  0.00000000000561 ]
  - # 3
    frequency:    0.8598308936
    eigenvector:
    - # atom 1
      - [ -0.44333727363693, -0.00000000000000 ]
      - [ -0.25596089426416, -0.00000000000000 ]
      - [  0.36196212380876, -0.00000000000000 ]
    - # atom 2
      - [  0.55088271679770, -0.00000000000000 ]
      - [  0.31805228482017, -0.00000000000000 ]
      - [ -0.44976713952197,  0.00000000000000 ]
  - # 4
    frequency:    5.4118867369
    eigenvector:
    - # atom 1
      - [  0.38993662485143,  0.00000000000000 ]
      - [  0.22510524130927,  0.00000000005189 ]
      - [  0.63674625388410,  0.00000000003669 ]
    - # atom 2
      - [  0.31299065332917, -0.00000000000000 ]
      - [  0.18068535258039,  0.00000000004165 ]
      - [  0.51109776108941,  0.00000000002945 ]
  - # 5
    frequency:    5.4118870096
    eigenvector:
    - # atom 1
      - [ -0.38991519901520,  0.00000000000000 ]
      - [  0.67537770938802,  0.00000000005189 ]
      - [  0.00001751785824,  0.00000000003669 ]
    - # atom 2
      - [ -0.31297345220745,  0.00000000000000 ]
      - [  0.54210580604481,  0.00000000004165 ]
      - [  0.00001406107698,  0.00000000002945 ]
  - # 6
    frequency:    7.8893833175
    eigenvector:
    - # atom 1
      - [ -0.55087184823466,  0.00000000000000 ]
      - [ -0.31804600984133, -0.00000000000000 ]
      - [  0.44978488834116, -0.00000000000000 ]
    - # atom 2
      - [ -0.44332859393818,  0.00000000000000 ]
      - [ -0.25595588302884,  0.00000000000000 ]
      - [  0.36197629812764,  0.00000000000000 ]

- q-position: [    0.0500900,    0.0500900,    1.0000000 ]
  distance:    0.0176826
  band:
  - # 1
    frequency:    0.4273086601
    eigenvector:
    - # atom 1
      - [  0.31284402658066,  0.00000000000000 ]
      - [  0.18062057331068, -0.00000000000230 ]
      - [  0.51089610992776, -0.00000000000163 ]
    - # atom 2
      - [ -0.39001675381810,  0.00000000000000 ]
      - [ -0.22517626577483,  0.00000000000287 ]
      - [ -0.63692430434338,  0.00000000000203 ]
  - # 2
    frequency:    0.4273366596
    eigenvector:
    - # atom 1
      - [ -0.31285372965752,  0.00000000000000 ]
      - [  0.54187856477081, -0.00000000000230 ]
      - [  0.00000000681775, -0.00000000000163 ]
    - # atom 2
      - [  0.39002889271151, -0.00000000000000 ]
      - [ -0.67554987064727,  0.00000000000287 ]
      - [ -0.00000000849958,  0.00000000000203 ]
  - # 3
    frequency:    0.9546340417
    eigenvector:
    - # atom 1
      - [ -0.44329634427406, -0.00000000000000 ]
      - [ -0.25593726368554, -0.00000000000000 ]
      - [  0.36193321178351, -0.00000000000000 ]
    - # atom 2
      - [  0.55091188455445, -0.00000000000000 ]
      - [  0.31806912483241,  0.00000000000000 ]
      - [ -0.44979656035090, -0.00000000000000 ]
  - # 4
    frequency:    5.4146908249
    eigenvector:
    - # atom 1
      - [  0.39003965771966,  0.00000000000000 ]
      - [  0.22516458699606,  0.00000000001803 ]
      - [  0.63691440756496,  0.00000000001275 ]
    - # atom 2
      - [  0.31286236774672, -0.00000000000000 ]
      - [  0.18061118767315,  0.00000000001446 ]
      - [  0.51088819651682,  0.00000000001023 ]
  - # 5
    frequency:    5.4146910950
    eigenvector:
    - # atom 1
      - [ -0.39001810952111,  0.00000000000000 ]
      - [  0.67555609598058,  0.00000000001803 ]
      - [  0.00001761711296,  0.00000000001275 ]
    - # atom 2
      - [ -0.31284508014089,  0.00000000000000 ]
      - [  0.54188355829518,  0.00000000001446 ]
      - [  0.00001413121594,  0.00000000001023 ]
  - # 6
    frequency:    7.8765030301
    eigenvector:
    - # atom 1
      - [ -0.55090330338177,  0.00000000000000 ]
      - [ -0.31806417047881, -0.00000000000000 ]
      - [  0.44981057368027, -0.00000000000000 ]
    - # atom 2
      - [ -0.44328950441856,  0.00000000000000 ]
      - [ -0.25593331468404,  0.00000000000000 ]
      - [  0.36194438149154,  0.00000000000000 ]

- q-position: [    0.0550890,    0.0550890,    1.0000000 ]
  distance:    0.0194508
  band:
  - # 1
    frequency:    0.4692332957
    eigenvector:
    - # atom 1
      - [  0.31271071703450,  0.00000000000000 ]
      - [  0.18054360415486, -0.00000000000871 ]
      - [  0.51067376381902, -0.00000000000616 ]
    - # atom 2
      - [ -0.39012752885039,  0.00000000000000 ]
      - [ -0.22524021820112,  0.00000000001087 ]
      - [ -0.63709942452905,  0.00000000000769 ]
  - # 2
    frequency:    0.4692582389
    eigenvector:
    - # atom 1
      - [ -0.31271852044857,  0.00000000000000 ]
      - [  0.54164437840467, -0.00000000000871 ]
      - [  0.00000000883547, -0.00000000000616 ]
    - # atom 2
      - [  0.39013730698363, -0.00000000000000 ]
      - [ -0.67573765324321,  0.00000000001087 ]
      - [ -0.00000001102286,  0.00000000000769 ]
  - # 3
    frequency:    1.0492663204
    eigenvector:
    - # atom 1
      - [ -0.44325151000317, -0.00000000000000 ]
      - [ -0.25591137860721, -0.00000000000000 ]
      - [  0.36189988794099, -0.00000000000000 ]
    - # atom 2
      - [  0.55094521156639, -0.00000000000000 ]
      - [  0.31808836619176,  0.00000000000000 ]
      - [ -0.44982785755562,  0.00000000000000 ]
  - # 4
    frequency:    5.4177441123
    eigenvector:
    - # atom 1
      - [  0.39014813456817,  0.00000000000000 ]
      - [  0.22522707700798,  0.00000000007893 ]
      - [  0.63709145205102,  0.00000000005581 ]
    - # atom 2
      - [  0.31272720242370, -0.00000000000000 ]
      - [  0.18053305260784,  0.00000000006327 ]
      - [  0.51066739897832,  0.00000000004474 ]
  - # 5
    frequency:    5.4177443799
    eigenvector:
    - # atom 1
      - [ -0.39012646509339,  0.00000000000000 ]
      - [  0.67574391246313,  0.00000000007894 ]
      - [  0.00001771548969,  0.00000000005582 ]
    - # atom 2
      - [ -0.31270983002119,  0.00000000000000 ]
      - [  0.54164939554605,  0.00000000006327 ]
      - [  0.00001420003826,  0.00000000004474 ]
  - # 6
    frequency:    7.8622799152
    eigenvector:
    - # atom 1
      - [ -0.55093829747699,  0.00000000000000 ]
      - [ -0.31808437432891, -0.00000000000000 ]
      - [  0.44983914843518, -0.00000000000000 ]
    - # atom 2
      - [ -0.44324601053712,  0.00000000000000 ]
      - [ -0.25590820347973,  0.00000000000000 ]
      - [  0.36190886870973,  0.00000000000000 ]

- q-position: [    0.0600880,    0.0600880,    1.0000000 ]
  distance:    0.0212191
  band:
  - # 1
    frequency:    0.5109516414
    eigenvector:
    - # atom 1
      - [  0.31257186066927,  0.00000000000000 ]
      - [  0.18046343260656, -0.00000000000403 ]
      - [  0.51044352684706, -0.00000000000285 ]
    - # atom 2
      - [ -0.39024169654134,  0.00000000000000 ]
      - [ -0.22530612945537,  0.00000000000503 ]
      - [ -0.63728153403336,  0.00000000000356 ]
  - # 2
    frequency:    0.5109740519
    eigenvector:
    - # atom 1
      - [ -0.31257824087694,  0.00000000000000 ]
      - [  0.54140140984776, -0.00000000000403 ]