 128  128
   1   1
     2.327233962886603    -0.000000000032919    -0.000000000023271
    -0.000000000032919     2.327233962848895     0.000000000023284
    -0.000000000023271     0.000000000023284     2.327233962882174
   1   2
    -0.238338711207821     0.000000000003426     0.000000000002430
     0.000000000003426     0.105018942082612    -0.043528023828810
     0.000000000002430    -0.043528023828810     0.135797902905187
   1   3
    -0.038480039633498     0.000000000000023     0.000000000000023
     0.000000000000023     0.009126216327259    -0.017817903912073
     0.000000000000023    -0.017817903912073     0.021725377009933
   1   4
    -0.238338711207821     0.000000000003426     0.000000000002430
     0.000000000003426     0.105018942082612    -0.043528023828810
     0.000000000002430    -0.043528023828810     0.135797902905187
   1   5
     0.019179528761242    -0.148678225166453    -0.037696374415146
    -0.148678225166453    -0.152499297878084     0.021764011915405
    -0.037696374415146     0.021764011915405     0.135797902907262
   1   6
    -0.032826352667797    -0.022026637275582    -0.000549763050422
    -0.022026637275582    -0.007392182745475    -0.000317405845082
    -0.000549763050422    -0.000317405845082     0.018746801824484
   1   7
    -0.032826352667788     0.022026637276561     0.000549763051132
     0.022026637276561    -0.007392182746730    -0.000317405845541
     0.000549763051132    -0.000317405845541     0.018746801824462
   1   8
     0.019179528761309     0.148678225165926     0.037696374414828
     0.148678225165926    -0.152499297886559     0.021764011911334
     0.037696374414828     0.021764011911334     0.135797902905743
   1   9
    -0.002775347662827    -0.020614113520375    -0.015430757430395
    -0.020614113520375    -0.026578475642255     0.008908951956226
    -0.015430757430395     0.008908951956226     0.021725377010783
   1  10
     0.005324902214563     0.000000000000023     0.000000000000023
     0.000000000000023    -0.045543437627840     0.000634811689983
     0.000000000000023     0.000634811689983     0.018746801824493
   1  11
    -0.002775347662815     0.020614113520495     0.015430757430502
     0.020614113520495    -0.026578475643430     0.008908951955371
     0.015430757430502     0.008908951955371     0.021725377010161
   1  12
     0.005324902214563     0.000000000000023     0.000000000000023
     0.000000000000023    -0.045543437627840     0.000634811689983
     0.000000000000023     0.000634811689983     0.018746801824493
   1  13
     0.019179528761242    -0.148678225166453    -0.037696374415146
    -0.148678225166453    -0.152499297878084     0.021764011915405
    -0.037696374415146     0.021764011915405     0.135797902907262
   1  14
     0.019179528761309     0.148678225165926     0.037696374414828
     0.148678225165926    -0.152499297886559     0.021764011911334
     0.037696374414828     0.021764011911334     0.135797902905743
   1  15
    -0.032826352667788     0.022026637276561     0.000549763051132
     0.022026637276561    -0.007392182746730    -0.000317405845541
     0.000549763051132    -0.000317405845541     0.018746801824462
   1  16
    -0.032826352667797    -0.022026637275582    -0.000549763050422
    -0.022026637275582    -0.007392182745475    -0.000317405845082
    -0.000549763050422    -0.000317405845082     0.018746801824484
   1  17
     0.019179528761242    -0.085099891020613    -0.127609716837276
    -0.085099891020613     0.117444418739849    -0.073675504362155
    -0.127609716837276    -0.073675504362155    -0.134145813716441
   1  18
    -0.032826352667797    -0.007860533999652    -0.020583658429219
    -0.007860533999652     0.015642968138361    -0.008461561542714
    -0.020583658429219    -0.008461561542714    -0.004288349059844
   1  19
    -0.032826352667788     0.007860534000635     0.020583658429924
     0.007860534000635     0.015642968137913    -0.008461561543459
     0.020583658429924    -0.008461561543459    -0.004288349060673
   1  20
     0.019179528761309     0.085099891020124     0.127609716836904
     0.085099891020124     0.117444418734998    -0.073675504367507
     0.127609716836904    -0.073675504367507    -0.134145813721585
   1  21
    -0.003281784194655    -0.024918098561000    -0.017619756467128
    -0.024918098561000    -0.013901600333818    -0.013595190330647
    -0.017619756467128    -0.013595190330647    -0.004288349060007
   1  22
    -0.014265096342862     0.000000000000023     0.000000000000023
     0.000000000000023    -0.014265096342631    -0.000000000000010
     0.000000000000023    -0.000000000000010    -0.014265096342835
   1  23
    -0.003281784194641     0.024918098561134     0.017619756467237
     0.024918098561134    -0.013901600335238    -0.013595190331652
     0.017619756467237    -0.013595190331652    -0.004288349060717
   1  24
    -0.001654438057367     0.000000000000023     0.000000000000023
     0.000000000000023    -0.093455887873265    -0.064913427689015
     0.000000000000023    -0.064913427689015    -0.047555162967295
   1  25
     0.010333060068333    -0.017057564561049     0.002963901962309
    -0.017057564561049    -0.027516444596810     0.022056751874078
     0.002963901962309     0.022056751874078    -0.004288349059703
   1  26
     0.010333060068339     0.017057564560798    -0.002963901962468
     0.017057564560798    -0.027516444597782     0.022056751873818
    -0.002963901962468     0.022056751873818    -0.004288349059584
   1  27
    -0.012853566847667     0.006401032424457     0.002721388154230
     0.006401032424457    -0.020244842434052     0.001571194182960
     0.002721388154230     0.001571194182960    -0.006935924931284
   1  28
    -0.012853566847670    -0.006401032424049    -0.002721388153925
    -0.006401032424049    -0.020244842433687     0.001571194183166
    -0.002721388153925     0.001571194183166    -0.006935924931174
   1  29
     0.166576863728337    -0.000000000002344    -0.000000000001650
    -0.000000000002344    -0.029952916227280     0.147351008731725
    -0.000000000001650     0.147351008731725    -0.134145813714558
   1  30
    -0.070505525420433     0.039751193823773    -0.056216677423912
     0.039751193823773    -0.024604800512461     0.032456713844180
    -0.056216677423912     0.032456713844180    -0.047555162964200
   1  31
    -0.023940480227461     0.000000000000023     0.000000000000023
     0.000000000000023    -0.009157929054256    -0.003142388366654
     0.000000000000023    -0.003142388366654    -0.006935924931324
   1  32
    -0.070505525420433    -0.039751193821719     0.056216677425378
    -0.039751193821719    -0.024604800510195     0.032456713843379
     0.056216677425378     0.032456713843379    -0.047555162966466
   1  33
    -0.002775347662827    -0.021419628797001    -0.014291586801492
    -0.021419628797001     0.021957909241490    -0.008251251486192
    -0.014291586801492    -0.008251251486192    -0.026811007874001
   1  34
     0.005324902214563     0.000000000000023     0.000000000000023
     0.000000000000023     0.012002446019402    -0.019710730587746
     0.000000000000023    -0.019710730587746    -0.038799081823979
   1  35
    -0.002775347662815     0.021419628797128     0.014291586801589
     0.021419628797128     0.021957909240269    -0.008251251487031
     0.014291586801589    -0.008251251487031    -0.026811007874577
   1  36
     0.005324902214563     0.000000000000023     0.000000000000023
     0.000000000000023     0.012002446019402    -0.019710730587746
     0.000000000000023    -0.019710730587746    -0.038799081823979
   1  37
     0.010333060068333    -0.002891461285118    -0.017069993416488
    -0.002891461285118     0.006994288165788     0.009855365294266
    -0.017069993416488     0.009855365294266    -0.038799081823039
   1  38
     0.010333060068339     0.002891461284872     0.017069993416323
     0.002891461284872     0.006994288165624     0.009855365293721
     0.017069993416323     0.009855365293721    -0.038799081823727
   1  39
    -0.012853566847667     0.004699426832195     0.005127821860617
     0.004699426832195    -0.007427136154665    -0.002960549331648
     0.005127821860617    -0.002960549331648    -0.019753631210945
   1  40
    -0.012853566847670    -0.004699426831785    -0.005127821860315
    -0.004699426831785    -0.007427136154397    -0.002960549331408
    -0.005127821860315    -0.002960549331408    -0.019753631210738
   1  41
     0.034324537693262     0.000000000000023     0.000000000000023
     0.000000000000023    -0.015141976114605     0.016502502973490
     0.000000000000023     0.016502502973490    -0.026811007873790
   1  42
    -0.004713920808143     0.000000000000023     0.000000000000023
     0.000000000000023    -0.015566782193926     0.005921098662725
     0.000000000000023     0.005921098662725    -0.019753631210663
   1  43
    -0.012493299608244     0.000000000000023     0.000000000000023
     0.000000000000023    -0.012493299608042    -0.000000000000010
     0.000000000000023    -0.000000000000010    -0.012493299608221
   1  44
    -0.004713920808143     0.000000000000023     0.000000000000023
     0.000000000000023    -0.015566782193926     0.005921098662725
     0.000000000000023     0.005921098662725    -0.019753631210663
   1  45
     0.010333060068333    -0.002891461285118    -0.017069993416488
    -0.002891461285118     0.006994288165788     0.009855365294266
    -0.017069993416488     0.009855365294266    -0.038799081823039
   1  46
    -0.012853566847670    -0.004699426831785    -0.005127821860315
    -0.004699426831785    -0.007427136154397    -0.002960549331408
    -0.005127821860315    -0.002960549331408    -0.019753631210738
   1  47
    -0.012853566847667     0.004699426832195     0.005127821860617
     0.004699426832195    -0.007427136154665    -0.002960549331648
     0.005127821860617    -0.002960549331648    -0.019753631210945
   1  48
     0.010333060068339     0.002891461284872     0.017069993416323
     0.002891461284872     0.006994288165624     0.009855365293721
     0.017069993416323     0.009855365293721    -0.038799081823727
   1  49
     0.019179528761242    -0.085099891020613    -0.127609716837276
    -0.085099891020613     0.117444418739849    -0.073675504362155
    -0.127609716837276    -0.073675504362155    -0.134145813716441
   1  50
     0.019179528761309     0.085099891020124     0.127609716836904
     0.085099891020124     0.117444418734998    -0.073675504367507
     0.127609716836904    -0.073675504367507    -0.134145813721585
   1  51
    -0.032826352667788     0.007860534000635     0.020583658429924
     0.007860534000635     0.015642968137913    -0.008461561543459
     0.020583658429924    -0.008461561543459    -0.004288349060673
   1  52
    -0.032826352667797    -0.007860533999652    -0.020583658429219
    -0.007860533999652     0.015642968138361    -0.008461561542714
    -0.020583658429219    -0.008461561542714    -0.004288349059844
   1  53
     0.166576863728337    -0.000000000002344    -0.000000000001650
    -0.000000000002344    -0.029952916227280     0.147351008731725
    -0.000000000001650     0.147351008731725    -0.134145813714558
   1  54
    -0.070505525420433    -0.039751193821719     0.056216677425378
    -0.039751193821719    -0.024604800510195     0.032456713843379
     0.056216677425378     0.032456713843379    -0.047555162966466
   1  55
    -0.023940480227461     0.000000000000023     0.000000000000023
     0.000000000000023    -0.009157929054256    -0.003142388366654
     0.000000000000023    -0.003142388366654    -0.006935924931324
   1  56
    -0.070505525420433     0.039751193823773    -0.056216677423912
     0.039751193823773    -0.024604800512461     0.032456713844180
    -0.056216677423912     0.032456713844180    -0.047555162964200
   1  57
     0.010333060068333    -0.017057564561049     0.002963901962309
    -0.017057564561049    -0.027516444596810     0.022056751874078
     0.002963901962309     0.022056751874078    -0.004288349059703
   1  58
    -0.012853566847670    -0.006401032424049    -0.002721388153925
    -0.006401032424049    -0.020244842433687     0.001571194183166
    -0.002721388153925     0.001571194183166    -0.006935924931174
   1  59
    -0.012853566847667     0.006401032424457     0.002721388154230
     0.006401032424457    -0.020244842434052     0.001571194182960
     0.002721388154230     0.001571194182960    -0.006935924931284
   1  60
     0.010333060068339     0.017057564560798    -0.002963901962468
     0.017057564560798    -0.027516444597782     0.022056751873818
    -0.002963901962468     0.022056751873818    -0.004288349059584
   1  61
    -0.003281784194655    -0.024918098561000    -0.017619756467128
    -0.024918098561000    -0.013901600333818    -0.013595190330647
    -0.017619756467128    -0.013595190330647    -0.004288349060007
   1  62
    -0.001654438057367     0.000000000000023     0.000000000000023
     0.000000000000023    -0.093455887873265    -0.064913427689015
     0.000000000000023    -0.064913427689015    -0.047555162967295
   1  63
    -0.003281784194641     0.024918098561134     0.017619756467237
     0.024918098561134    -0.013901600335238    -0.013595190331652
     0.017619756467237    -0.013595190331652    -0.004288349060717
   1  64
    -0.014265096342862     0.000000000000023     0.000000000000023
     0.000000000000023    -0.014265096342631    -0.000000000000010
     0.000000000000023    -0.000000000000010    -0.014265096342835
   1  65
     0.048236804766800     0.058446192382625     0.041327698969167
     0.058446192382625    -0.019251045046332     0.023860558123203
     0.041327698969167     0.023860558123203    -0.036123007498198
   1  66
     0.030830311459180     0.000000000000017     0.000000000000005
     0.000000000000017    -0.001865096110663     0.006360555161666
     0.000000000000005     0.006360555161666    -0.006362687797536
   1  67
     0.048236804766767    -0.058446192383967    -0.041327698970130
    -0.058446192383967    -0.019251045043001     0.023860558125559
    -0.041327698970130     0.023860558125559    -0.036123007496533
   1  68
    -0.167933988120564     0.000000000002338     0.000000000001646
     0.000000000002338    -0.560539434612664    -0.277613973554903
     0.000000000001646    -0.277613973554903    -0.364236711376075
   1  69
     0.006308755781780     0.014157526771111     0.005508402352326
     0.014157526771111     0.022656459565942    -0.003180277580847
     0.005508402352326    -0.003180277580847    -0.006362687797840
   1  70
     0.006308755781773    -0.014157526771254    -0.005508402352445
    -0.014157526771254     0.022656459566749    -0.003180277580405
    -0.005508402352445    -0.003180277580405    -0.006362687797618
   1  71
    -0.006268756951344    -0.015294218169385    -0.005715466751043
    -0.033585597816720     0.056263582507777     0.006027264751476
    -0.018649425337206     0.028429538165204    -0.013170287681159
   1  72
    -0.006268756951332     0.015294218169611     0.005715466751178
     0.033585597816943     0.056263582506384     0.006027264750636
     0.018649425337345     0.028429538164364    -0.013170287681650
   1  73
    -0.052994969950855     0.000000000000017     0.000000000000005
     0.000000000000017     0.081980729671341    -0.047721116248341
     0.000000000000005    -0.047721116248341    -0.036123007498808
   1  74
     0.019464916454748    -0.048442941085218     0.002362031013147
    -0.030151561437883     0.030529909102530    -0.007963371775451
     0.015295989599310    -0.030365645189179    -0.013170287682315
   1  75
     0.017886215012167     0.000000000000017     0.000000000000005
     0.000000000000017     0.017886215011877    -0.000000000000008
     0.000000000000005    -0.000000000000008    -0.002091900984727
   1  76
     0.019464916454761     0.048442941084698    -0.002362031013533
     0.030151561437366     0.030529909100290    -0.007963371775992
    -0.015295989599700    -0.030365645189720    -0.013170287681960
   1  77
    -0.462388072996478     0.170003145172323    -0.240420753534792
     0.170003145172323    -0.266085349746421     0.138806986773684
    -0.240420753534792     0.138806986773684    -0.364236711362838
   1  78
     0.061796078831569    -0.005711653445323     0.008077497764109
    -0.024003033092660    -0.011801253274298     0.001936107025526
     0.033945414935885     0.001936107024973    -0.013170287682136
   1  79
     0.061796078831569     0.005711653443593    -0.008077497765346
     0.024003033090930    -0.011801253275144     0.001936107025273
    -0.033945414937122     0.001936107025825    -0.013170287681289
   1  80
    -0.462388072996478    -0.170003145159143     0.240420753544097
    -0.170003145159143    -0.266085349736731     0.138806986770258
     0.240420753544098     0.138806986770258    -0.364236711372528
   1  81
     0.006308755781780     0.009912547132650     0.011511710129036
     0.009912547132650    -0.005137267729383     0.006646288941428
     0.011511710129036     0.006646288941428     0.021431039498079
   1  82
     0.006308755781773    -0.009912547132796    -0.011511710129149
    -0.009912547132796    -0.005137267728818     0.006646288941955
    -0.011511710129149     0.006646288941955     0.021431039498543
   1  83
    -0.006268756951344    -0.010486666452682    -0.012514371590613
    -0.028778046100014     0.005373315228323     0.046421964709665
    -0.025448330176780     0.024019691295937     0.037719979599384
   1  84
    -0.006268756951332     0.010486666452898     0.012514371590763
     0.028778046100234     0.005373315227204     0.046421964708728
     0.025448330176926     0.024019691295000     0.037719979598619
   1  85
    -0.010860279484662     0.000000000000017     0.000000000000005
     0.000000000000017     0.012031767537062    -0.013292577883394
     0.000000000000005    -0.013292577883394     0.021431039497909
   1  86
     0.004567471014233    -0.007689580432459    -0.005437354468395
    -0.007689580432459     0.013446633679525    -0.003139258065632
    -0.005437354468395    -0.003139258065632     0.015666424345862
   1  87
     0.003090591503097     0.000000000000017     0.000000000000005
     0.000000000000017     0.018912022459294     0.011187441117500
     0.000000000000005     0.011187441117500     0.011001306981554
   1  88
     0.004567471014237     0.007689580432364     0.005437354468313
     0.007689580432364     0.013446633679087    -0.003139258065942
     0.005437354468313    -0.003139258065942     0.015666424345643
   1  89
    -0.014539322088641    -0.024003033091572     0.033945414936654
    -0.005711653444236     0.013643880365365    -0.034048746064631
     0.008077497764878    -0.034048746064078     0.037719979597182
   1  90
     0.014956664720476    -0.006850880566419     0.009688608210804
    -0.006850880566419     0.007045949242305    -0.005593720558666
     0.009688608210804    -0.005593720558666     0.011001306981021
   1  91
     0.014956664720476     0.006850880566026    -0.009688608211095
     0.006850880566026     0.007045949241915    -0.005593720558528
    -0.009688608211095    -0.005593720558528     0.011001306981411
   1  92
    -0.014539322088641     0.024003033092017    -0.033945414936353
     0.005711653444681     0.013643880364518    -0.034048746063778
    -0.008077497764577    -0.034048746064331     0.037719979598029
   1  93
     0.019464916454761     0.013920702831735     0.046459786527278
    -0.004370676815600    -0.020360358178043    -0.012373218645655
     0.033525827941116     0.010029054768073     0.037719979597462
   1  94
     0.017886215012167     0.000000000000017     0.000000000000005
     0.000000000000017     0.000127889681588     0.006278516131819
     0.000000000000005     0.006278516131819     0.015666424345942
   1  95
     0.019464916454748    -0.013920702832260    -0.046459786527658
     0.004370676815073    -0.020360358177771    -0.012373218644419
    -0.033525827941492     0.010029054769309     0.037719979599074
   1  96
    -0.052994969950855     0.000000000000017     0.000000000000005
     0.000000000000017    -0.052994969949996    -0.000000000000008
     0.000000000000005    -0.000000000000008     0.098852692125414
   1  97
    -0.052994969950855     0.000000000000017     0.000000000000005
     0.000000000000017    -0.052994969949996    -0.000000000000008
     0.000000000000005    -0.000000000000008     0.098852692125414
   1  98
     0.019464916454748    -0.013920702832260    -0.046459786527658
     0.004370676815073    -0.020360358177771    -0.012373218644419
    -0.033525827941492     0.010029054769309     0.037719979599074
   1  99
     0.017886215012167     0.000000000000017     0.000000000000005
     0.000000000000017     0.000127889681588     0.006278516131819
     0.000000000000005     0.006278516131819     0.015666424345942
   1 100
     0.019464916454761     0.013920702831735     0.046459786527278
    -0.004370676815600    -0.020360358178043    -0.012373218645655
     0.033525827941116     0.010029054768073     0.037719979597462
   1 101
    -0.014539322088641     0.024003033092017    -0.033945414936353
     0.005711653444681     0.013643880364518    -0.034048746063778
    -0.008077497764577    -0.034048746064331     0.037719979598029
   1 102
     0.014956664720476     0.006850880566026    -0.009688608211095
     0.006850880566026     0.007045949241915    -0.005593720558528
    -0.009688608211095    -0.005593720558528     0.011001306981411
   1 103
     0.014956664720476    -0.006850880566419     0.009688608210804
    -0.006850880566419     0.007045949242305    -0.005593720558666
     0.009688608210804    -0.005593720558666     0.011001306981021
   1 104
    -0.014539322088641    -0.024003033091572     0.033945414936654
    -0.005711653444236     0.013643880365365    -0.034048746064631
     0.008077497764878    -0.034048746064078     0.037719979597182
   1 105
     0.004567471014237     0.007689580432364     0.005437354468313
     0.007689580432364     0.013446633679087    -0.003139258065942
     0.005437354468313    -0.003139258065942     0.015666424345643
   1 106
     0.003090591503097     0.000000000000017     0.000000000000005
     0.000000000000017     0.018912022459294     0.011187441117500
     0.000000000000005     0.011187441117500     0.011001306981554
   1 107
     0.004567471014233    -0.007689580432459    -0.005437354468395
    -0.007689580432459     0.013446633679525    -0.003139258065632
    -0.005437354468395    -0.003139258065632     0.015666424345862
   1 108
    -0.010860279484662     0.000000000000017     0.000000000000005
     0.000000000000017     0.012031767537062    -0.013292577883394
     0.000000000000005    -0.013292577883394     0.021431039497909
   1 109
    -0.006268756951332     0.010486666452898     0.012514371590763
     0.028778046100234     0.005373315227204     0.046421964708728
     0.025448330176926     0.024019691295000     0.037719979598619
   1 110
    -0.006268756951344    -0.010486666452682    -0.012514371590613
    -0.028778046100014     0.005373315228323     0.046421964709665
    -0.025448330176780     0.024019691295937     0.037719979599384
   1 111
     0.006308755781773    -0.009912547132796    -0.011511710129149
    -0.009912547132796    -0.005137267728818     0.006646288941955
    -0.011511710129149     0.006646288941955     0.021431039498543
   1 112
     0.006308755781780     0.009912547132650     0.011511710129036
     0.009912547132650    -0.005137267729383     0.006646288941428
     0.011511710129036     0.006646288941428     0.021431039498079
   1 113
    -0.462388072996478    -0.170003145159143     0.240420753544098
    -0.170003145159143    -0.266085349736731     0.138806986770258
     0.240420753544098     0.138806986770258    -0.364236711372528
   1 114
     0.061796078831569     0.005711653443593    -0.008077497765346
     0.024003033090930    -0.011801253275144     0.001936107025273
    -0.033945414937122     0.001936107025825    -0.013170287681289
   1 115
     0.061796078831569    -0.005711653445323     0.008077497764109
    -0.024003033092660    -0.011801253274298     0.001936107025526
     0.033945414935885     0.001936107024973    -0.013170287682136
   1 116
    -0.462388072996478     0.170003145172323    -0.240420753534792
     0.170003145172323    -0.266085349746421     0.138806986773684
    -0.240420753534792     0.138806986773684    -0.364236711362838
   1 117
     0.019464916454761     0.048442941084698    -0.002362031013533
     0.030151561437366     0.030529909100290    -0.007963371775992
    -0.015295989599700    -0.030365645189720    -0.013170287681960
   1 118
     0.017886215012167     0.000000000000017     0.000000000000005
     0.000000000000017     0.017886215011877    -0.000000000000008
     0.000000000000005    -0.000000000000008    -0.002091900984727
   1 119
     0.019464916454748    -0.048442941085218     0.002362031013147
    -0.030151561437883     0.030529909102530    -0.007963371775451
     0.015295989599310    -0.030365645189179    -0.013170287682315
   1 120
    -0.052994969950855     0.000000000000017     0.000000000000005
     0.000000000000017     0.081980729671341    -0.047721116248341
     0.000000000000005    -0.047721116248341    -0.036123007498808
   1 121
    -0.006268756951332     0.015294218169611     0.005715466751178
     0.033585597816943     0.056263582506384     0.006027264750636
     0.018649425337345     0.028429538164364    -0.013170287681650
   1 122
    -0.006268756951344    -0.015294218169385    -0.005715466751043
    -0.033585597816720     0.056263582507777     0.006027264751476
    -0.018649425337206     0.028429538165204    -0.013170287681159
   1 123
     0.006308755781773    -0.014157526771254    -0.005508402352445
    -0.014157526771254     0.022656459566749    -0.003180277580405
    -0.005508402352445    -0.003180277580405    -0.006362687797618
   1 124
     0.006308755781780     0.014157526771111     0.005508402352326
     0.014157526771111     0.022656459565942    -0.003180277580847
     0.005508402352326    -0.003180277580847    -0.006362687797840
   1 125
    -0.167933988120564     0.000000000002338     0.000000000001646
     0.000000000002338    -0.560539434612664    -0.277613973554903
     0.000000000001646    -0.277613973554903    -0.364236711376075
   1 126
     0.048236804766767    -0.058446192383967    -0.041327698970130
    -0.058446192383967    -0.019251045043001     0.023860558125559
    -0.041327698970130     0.023860558125559    -0.036123007496533
   1 127
     0.030830311459180     0.000000000000017     0.000000000000005
     0.000000000000017    -0.001865096110663     0.006360555161666
     0.000000000000005     0.006360555161666    -0.006362687797536
   1 128
     0.048236804766800     0.058446192382625     0.041327698969167
     0.058446192382625    -0.019251045046332     0.023860558123203
     0.041327698969167     0.023860558123203    -0.036123007498198
   2   1
    -0.238338711207821     0.000000000003426     0.000000000002430
     0.000000000003426     0.105018942082612    -0.043528023828810
     0.000000000002430    -0.043528023828810     0.135797902905187
   2   2
     2.327233962886603    -0.000000000032919    -0.000000000023270
    -0.000000000032919     2.327233962848897     0.000000000023284
    -0.000000000023270     0.000000000023284     2.327233962882175
   2   3
    -0.238338711207821     0.000000000003426     0.000000000002430
     0.000000000003426     0.105018942082612    -0.043528023828810
     0.000000000002430    -0.043528023828810     0.135797902905187
   2   4
    -0.038480039633498     0.000000000000023     0.000000000000023
     0.000000000000023     0.009126216327259    -0.017817903912073
     0.000000000000023    -0.017817903912073     0.021725377009933
   2   5
     0.019179528761309     0.148678225165926     0.037696374414828
     0.148678225165926    -0.152499297886559     0.021764011911334
     0.037696374414828     0.021764011911334     0.135797902905743
   2   6
     0.019179528761242    -0.148678225166453    -0.037696374415146
    -0.148678225166453    -0.152499297878084     0.021764011915405
    -0.037696374415146     0.021764011915405     0.135797902907262
   2   7
    -0.032826352667797    -0.022026637275582    -0.000549763050422
    -0.022026637275582    -0.007392182745475    -0.000317405845082
    -0.000549763050422    -0.000317405845082     0.018746801824484
   2   8
    -0.032826352667788     0.022026637276561     0.000549763051132
     0.022026637276561    -0.007392182746730    -0.000317405845541
     0.000549763051132    -0.000317405845541     0.018746801824462
   2   9
     0.005324902214563     0.000000000000023     0.000000000000023
     0.000000000000023    -0.045543437627840     0.000634811689983
     0.000000000000023     0.000634811689983     0.018746801824493
   2  10
    -0.002775347662827    -0.020614113520375    -0.015430757430395
    -0.020614113520375    -0.026578475642255     0.008908951956226
    -0.015430757430395     0.008908951956226     0.021725377010783
   2  11
     0.005324902214563     0.000000000000023     0.000000000000023
     0.000000000000023    -0.045543437627840     0.000634811689983
     0.000000000000023     0.000634811689983     0.018746801824493
   2  12
    -0.002775347662815     0.020614113520495     0.015430757430502
     0.020614113520495    -0.026578475643430     0.008908951955371
     0.015430757430502     0.008908951955371     0.021725377010161
   2  13
    -0.032826352667797    -0.022026637275582    -0.000549763050422
    -0.022026637275582    -0.007392182745475    -0.000317405845082
    -0.000549763050422    -0.000317405845082     0.018746801824484
   2  14
     0.019179528761242    -0.148678225166453    -0.037696374415146
    -0.148678225166453    -0.152499297878084     0.021764011915405
    -0.037696374415146     0.021764011915405     0.135797902907262
   2  15
     0.019179528761309     0.148678225165926     0.037696374414828
     0.148678225165926    -0.152499297886559     0.021764011911334