 128  128
   1   1
     2.329085447880380    -0.000000000032968    -0.000000000023312
    -0.000000000032968     2.329085447842644     0.000000000023312
    -0.000000000023312     0.000000000023312     2.329085447875949
   1   2
    -0.231241507466550     0.000000000003302     0.000000000002335
     0.000000000003302     0.102952665781783    -0.050282213421822
     0.000000000002335    -0.050282213421822     0.138507559866856
   1   3
    -0.048251752773634     0.000000000000000     0.000000000000000
     0.000000000000000     0.019361190394355    -0.012019577144255
     0.000000000000000    -0.012019577144255     0.027860314900283
   1   4
    -0.231241507466550     0.000000000003302     0.000000000002335
     0.000000000003302     0.102952665781783    -0.050282213421822
     0.000000000002335    -0.050282213421822     0.138507559866856
   1   5
     0.019404122470912    -0.144710321914730    -0.043545674184694
    -0.144710321914730    -0.147692964147537     0.025141106712006
    -0.043545674184694     0.025141106712006     0.138507559869254
   1   6
    -0.035308896732593    -0.019836179171262    -0.000564318784261
    -0.019836179171262    -0.012404049962614    -0.000325809602009
    -0.000564318784261    -0.000325809602009     0.026913389971140
   1   7
    -0.035308896732585     0.019836179172266     0.000564318784976
     0.019836179172266    -0.012404049963745    -0.000325809602425
     0.000564318784976    -0.000325809602425     0.026913389971117
   1   8
     0.019404122470979     0.144710321914152     0.043545674184326
     0.144710321914152    -0.147692964155786     0.025141106707849
     0.043545674184326     0.025141106707849     0.138507559867498
   1   9
     0.002457954602585    -0.029277263203991    -0.010409259150240
    -0.029277263203991    -0.031348516980218     0.006009788572350
    -0.010409259150240     0.006009788572350     0.027860314900856
   1  10
    -0.000951626578776     0.000000000000000     0.000000000000000
     0.000000000000000    -0.046761320116436     0.000651619203708
     0.000000000000000     0.000651619203708     0.026913389971148
   1  11
     0.002457954602599     0.029277263203916     0.010409259150196
     0.029277263203916    -0.031348516981886     0.006009788571463
     0.010409259150196     0.006009788571463     0.027860314900437
   1  12
    -0.000951626578776     0.000000000000000     0.000000000000000
     0.000000000000000    -0.046761320116436     0.000651619203708
     0.000000000000000     0.000651619203708     0.026913389971148
   1  13
     0.019404122470912    -0.144710321914730    -0.043545674184694
    -0.144710321914730    -0.147692964147537     0.025141106712006
    -0.043545674184694     0.025141106712006     0.138507559869254
   1  14
     0.019404122470979     0.144710321914152     0.043545674184326
     0.144710321914152    -0.147692964155786     0.025141106707849
     0.043545674184326     0.025141106707849     0.138507559867498
   1  15
    -0.035308896732585     0.019836179172266     0.000564318784976
     0.019836179172266    -0.012404049963745    -0.000325809602425
     0.000564318784976    -0.000325809602425     0.026913389971117
   1  16
    -0.035308896732593    -0.019836179171262    -0.000564318784261
    -0.019836179171262    -0.012404049962614    -0.000325809602009
    -0.000564318784261    -0.000325809602009     0.026913389971140
   1  17
     0.019404122470912    -0.089292029313017    -0.121918975185591
    -0.089292029313017     0.122509676792766    -0.070389953137632
    -0.121918975185591    -0.070389953137632    -0.131695081076825
   1  18
    -0.035308896732593    -0.007144104575697    -0.018513622811960
    -0.007144104575697     0.022340001374731    -0.012609686755009
    -0.018513622811960    -0.012609686755009    -0.007830661366947
   1  19
    -0.035308896732585     0.007144104576706     0.018513622812668
     0.007144104576706     0.022340001374323    -0.012609686755681
     0.018513622812668    -0.012609686755681    -0.007830661367693
   1  20
     0.019404122470979     0.089292029312478     0.121918975185169
     0.089292029312478     0.122509676787676    -0.070389953142907
     0.121918975185169    -0.070389953142907    -0.131695081081739
   1  21
     0.001740800797676    -0.028534757418552    -0.020177120470604
    -0.028534757418552    -0.014709696154333    -0.009728424293142
    -0.020177120470604    -0.009728424293142    -0.007830661366856
   1  22
    -0.008260228646569     0.000000000000000     0.000000000000000
     0.000000000000000    -0.008260228646435     0.000000000000000
     0.000000000000000     0.000000000000000    -0.008260228646553
   1  23
     0.001740800797692     0.028534757418498     0.020177120470566
     0.028534757418498    -0.014709696155960    -0.009728424294292
     0.020177120470566    -0.009728424294292    -0.007830661367669
   1  24
     0.001962214709692     0.000000000000000     0.000000000000000
     0.000000000000000    -0.091163334779804    -0.065849707547117
     0.000000000000000    -0.065849707547117    -0.044600560037041
   1  25
     0.014114752898348    -0.021390652842526    -0.001663497658412
    -0.021390652842526    -0.027083648255009     0.022338111049107
    -0.001663497658412     0.022338111049107    -0.007830661366582
   1  26
     0.014114752898356     0.021390652842122     0.001663497658131
     0.021390652842122    -0.027083648256228     0.022338111048628
     0.001663497658131     0.022338111048628    -0.007830661366649
   1  27
    -0.012619681942712     0.007641280546303     0.000122734144818
     0.007641280546303    -0.021443072703172     0.000070860591137
     0.000122734144818     0.000070860591137    -0.008107774552964
   1  28
    -0.012619681942715    -0.007641280545947    -0.000122734144564
    -0.007641280545947    -0.021443072702737     0.000070860591294
    -0.000122734144564     0.000070860591294    -0.008107774552959
   1  29
     0.174062453952821    -0.000000000002474    -0.000000000001749
    -0.000000000002474    -0.032148654689177     0.140779906282711
    -0.000000000001749     0.140779906282711    -0.131695081075027
   1  30
    -0.067881947408544     0.040324545800933    -0.057027519566157
     0.040324545800933    -0.021319172663862     0.032924853773295
    -0.057027519566157     0.032924853773295    -0.044600560033901
   1  31
    -0.025854768083597     0.000000000000000     0.000000000000000
     0.000000000000000    -0.008207986562286    -0.000141721182944
     0.000000000000000    -0.000141721182944    -0.008107774552966
   1  32
    -0.067881947408544    -0.040324545798997     0.057027519567526
    -0.040324545798997    -0.021319172661563     0.032924853772482
     0.057027519567526     0.032924853772482    -0.044600560036200
   1  33
     0.002457954602585    -0.019573031377331    -0.024133115411914
    -0.019573031377331     0.025058944472010    -0.013933260678415
    -0.024133115411914    -0.013933260678415    -0.028547146552578
   1  34
    -0.000951626578776     0.000000000000000     0.000000000000000
     0.000000000000000     0.019136879390421    -0.022646912665431
     0.000000000000000    -0.022646912665431    -0.038984809537117
   1  35
     0.002457954602599     0.019573031377264     0.024133115411858
     0.019573031377264     0.025058944470895    -0.013933260679497
     0.024133115411858    -0.013933260679497    -0.028547146553550
   1  36
    -0.000951626578776     0.000000000000000     0.000000000000000
     0.000000000000000     0.019136879390421    -0.022646912665431
     0.000000000000000    -0.022646912665431    -0.038984809537117
   1  37
     0.014114752898348    -0.008698578246961    -0.019612801686110
    -0.008698578246961     0.004070499913781     0.011323456333224
    -0.019612801686110     0.011323456333224    -0.038984809536038
   1  38
     0.014114752898356     0.008698578246561     0.019612801685823
     0.008698578246561     0.004070499913285     0.011323456332490
     0.019612801685823     0.011323456332490    -0.038984809536828
   1  39
    -0.012619681942712     0.002662808376805     0.007163357006817
     0.002662808376805    -0.009544935676517    -0.004135766096290
     0.007163357006817    -0.004135766096290    -0.020005911579874
   1  40
    -0.012619681942715    -0.002662808376448    -0.007163357006567
    -0.002662808376448    -0.009544935676365    -0.004135766096032
    -0.007163357006567    -0.004135766096032    -0.020005911579585
   1  41
     0.036359439406489     0.000000000000000     0.000000000000000
     0.000000000000000    -0.008842540331901     0.027866521358333
     0.000000000000000     0.027866521358333    -0.028547146552222
   1  42
    -0.008007562543538     0.000000000000000     0.000000000000000
     0.000000000000000    -0.014157055075544     0.008271532191991
     0.000000000000000     0.008271532191991    -0.020005911579479
   1  43
    -0.016584138818037     0.000000000000000     0.000000000000000
     0.000000000000000    -0.016584138817768     0.000000000000000
     0.000000000000000     0.000000000000000    -0.016584138818005
   1  44
    -0.008007562543538     0.000000000000000     0.000000000000000
     0.000000000000000    -0.014157055075544     0.008271532191991
     0.000000000000000     0.008271532191991    -0.020005911579479
   1  45
     0.014114752898348    -0.008698578246961    -0.019612801686110
    -0.008698578246961     0.004070499913781     0.011323456333224
    -0.019612801686110     0.011323456333224    -0.038984809536038
   1  46
    -0.012619681942715    -0.002662808376448    -0.007163357006567
    -0.002662808376448    -0.009544935676365    -0.004135766096032
    -0.007163357006567    -0.004135766096032    -0.020005911579585
   1  47
    -0.012619681942712     0.002662808376805     0.007163357006817
     0.002662808376805    -0.009544935676517    -0.004135766096290
     0.007163357006817    -0.004135766096290    -0.020005911579874
   1  48
     0.014114752898356     0.008698578246561     0.019612801685823
     0.008698578246561     0.004070499913285     0.011323456332490
     0.019612801685823     0.011323456332490    -0.038984809536828
   1  49
     0.019404122470912    -0.089292029313017    -0.121918975185591
    -0.089292029313017     0.122509676792766    -0.070389953137632
    -0.121918975185591    -0.070389953137632    -0.131695081076825
   1  50
     0.019404122470979     0.089292029312478     0.121918975185169
     0.089292029312478     0.122509676787676    -0.070389953142907
     0.121918975185169    -0.070389953142907    -0.131695081081739
   1  51
    -0.035308896732585     0.007144104576706     0.018513622812668
     0.007144104576706     0.022340001374323    -0.012609686755681
     0.018513622812668    -0.012609686755681    -0.007830661367693
   1  52
    -0.035308896732593    -0.007144104575697    -0.018513622811960
    -0.007144104575697     0.022340001374730    -0.012609686755009
    -0.018513622811960    -0.012609686755009    -0.007830661366947
   1  53
     0.174062453952821    -0.000000000002474    -0.000000000001749
    -0.000000000002474    -0.032148654689177     0.140779906282711
    -0.000000000001749     0.140779906282711    -0.131695081075027
   1  54
    -0.067881947408544    -0.040324545798997     0.057027519567526
    -0.040324545798997    -0.021319172661563     0.032924853772482
     0.057027519567526     0.032924853772482    -0.044600560036200
   1  55
    -0.025854768083597     0.000000000000000     0.000000000000000
     0.000000000000000    -0.008207986562286    -0.000141721182944
     0.000000000000000    -0.000141721182944    -0.008107774552966
   1  56
    -0.067881947408544     0.040324545800933    -0.057027519566157
     0.040324545800933    -0.021319172663862     0.032924853773295
    -0.057027519566157     0.032924853773295    -0.044600560033901
   1  57
     0.014114752898348    -0.021390652842526    -0.001663497658412
    -0.021390652842526    -0.027083648255009     0.022338111049107
    -0.001663497658412     0.022338111049107    -0.007830661366582
   1  58
    -0.012619681942715    -0.007641280545947    -0.000122734144564
    -0.007641280545947    -0.021443072702737     0.000070860591294
    -0.000122734144564     0.000070860591294    -0.008107774552959
   1  59
    -0.012619681942712     0.007641280546303     0.000122734144818
     0.007641280546303    -0.021443072703172     0.000070860591137
     0.000122734144818     0.000070860591137    -0.008107774552964
   1  60
     0.014114752898356     0.021390652842122     0.001663497658131
     0.021390652842122    -0.027083648256228     0.022338111048628
     0.001663497658131     0.022338111048628    -0.007830661366649
   1  61
     0.001740800797676    -0.028534757418552    -0.020177120470604
    -0.028534757418552    -0.014709696154333    -0.009728424293142
    -0.020177120470604    -0.009728424293142    -0.007830661366856
   1  62
     0.001962214709692     0.000000000000000     0.000000000000000
     0.000000000000000    -0.091163334779804    -0.065849707547117
     0.000000000000000    -0.065849707547117    -0.044600560037041
   1  63
     0.001740800797692     0.028534757418498     0.020177120470566
     0.028534757418498    -0.014709696155960    -0.009728424294292
     0.020177120470566    -0.009728424294292    -0.007830661367669
   1  64
    -0.008260228646569     0.000000000000000     0.000000000000000
     0.000000000000000    -0.008260228646435     0.000000000000000
     0.000000000000000     0.000000000000000    -0.008260228646553
   1  65
     0.050637475281485     0.061163419319808     0.043249068562520
     0.061163419319808    -0.019987957939062     0.024969861375077
     0.043249068562520     0.024969861375077    -0.037644316242713
   1  66
     0.031953418329788     0.000000000000000     0.000000000000000
     0.000000000000000    -0.005650028943537     0.005892504326827
     0.000000000000000     0.005892504326827    -0.009816658711238
   1  67
     0.050637475281450    -0.061163419321251    -0.043249068563541
    -0.061163419321251    -0.019987957935575     0.024969861377542
    -0.043249068563541     0.024969861377542    -0.037644316240969
   1  68
    -0.168683709758704     0.000000000002332     0.000000000001649
     0.000000000002332    -0.561595932688724    -0.277830897254477
     0.000000000001649    -0.277830897254477    -0.365139821233186
   1  69
     0.003750832874730     0.016282770304140     0.005103058439157
     0.016282770304140     0.022552556510605    -0.002946252163450
     0.005103058439157    -0.002946252163450    -0.009816658711519
   1  70
     0.003750832874722    -0.016282770304243    -0.005103058439234
    -0.016282770304243     0.022552556511533    -0.002946252162977
    -0.005103058439234    -0.002946252162977    -0.009816658711314
   1  71
    -0.007182781111032    -0.015223214990565    -0.004842399626297
    -0.033929662115408     0.052768739563223     0.004256037915492
    -0.018069855240462     0.027166663093579    -0.014939336482074
   1  72
    -0.007182781111020     0.015223214990783     0.004842399626441
     0.033929662115623     0.052768739561822     0.004256037914670
     0.018069855240610     0.027166663092757    -0.014939336482536
   1  73
    -0.055300674547193     0.000000000000000     0.000000000000000
     0.000000000000000     0.085950191889635    -0.049939722752147
     0.000000000000000    -0.049939722752147    -0.037644316243351
   1  74
     0.016497039273071    -0.047601212788765     0.001264637139743
    -0.028894765663921     0.029088919179897    -0.006321660048252
     0.014492092753908    -0.029232285226339    -0.014939336483139
   1  75
     0.021872673899593     0.000000000000000     0.000000000000000
     0.000000000000000     0.021872673899239     0.000000000000000
     0.000000000000000     0.000000000000000    -0.007232983719400
   1  76
     0.016497039273084     0.047601212788296    -0.001264637140079
     0.028894765663456     0.029088919177717    -0.006321660048798
    -0.014492092754248    -0.029232285226885    -0.014939336482821
   1  77
    -0.463367876963071     0.170135983266587    -0.240608614969299
     0.170135983266587    -0.266911765494036     0.138915448623471
    -0.240608614969299     0.138915448623471    -0.365139821219939
   1  78
     0.059064679516479    -0.004318327111435     0.006107036765967
    -0.023024774236280    -0.013478721063517     0.002065622134281
     0.032561947993735     0.002065622133715    -0.014939336482970
   1  79
     0.059064679516479     0.004318327109750    -0.006107036767159
     0.023024774234594    -0.013478721064297     0.002065622133991
    -0.032561947994927     0.002065622134556    -0.014939336482191
   1  80
    -0.463367876963071    -0.170135983253413     0.240608614978615
    -0.170135983253413    -0.266911765484338     0.138915448620042
     0.240608614978615     0.138915448620042    -0.365139821229637
   1  81
     0.003750832874730     0.010238799737349     0.013650523585296
     0.010238799737349    -0.008071914694669     0.007881133466067
     0.013650523585296     0.007881133466067     0.020807812494410
   1  82
     0.003750832874722    -0.010238799737456    -0.013650523585367
    -0.010238799737456    -0.008071914694085     0.007881133466662
    -0.013650523585367     0.007881133466662     0.020807812494960
   1  83
    -0.007182781111032    -0.009639863147303    -0.012738451526538
    -0.028346310272144     0.002458985285440     0.044953847298020
    -0.025965907140707     0.022043222119932     0.035370417796784
   1  84
    -0.007182781111020     0.009639863147512     0.012738451526696
     0.028346310272355     0.002458985284358     0.044953847297085
     0.025965907140860     0.022043222118998     0.035370417796004
   1  85
    -0.013983288479123     0.000000000000000     0.000000000000000
     0.000000000000000     0.009662206659188    -0.015762266932798
     0.000000000000000    -0.015762266932798     0.020807812494208
   1  86
     0.002468902153585    -0.011202772840793    -0.007921556643987
    -0.011202772840793     0.015404749984329    -0.004573512860311
    -0.007921556643987    -0.004573512860311     0.018638711941958
   1  87
     0.004965726676504     0.000000000000000     0.000000000000000
     0.000000000000000     0.017998347663068     0.009215454676538
     0.000000000000000     0.009215454676538     0.011482037170096
   1  88
     0.002468902153592     0.011202772840725     0.007921556643939
     0.011202772840725     0.015404749983690    -0.004573512860762
     0.007921556643939    -0.004573512860762     0.018638711941639
   1  89
    -0.016399951901175    -0.023024774235204     0.032561947994496
    -0.004318327110360     0.011676156075298    -0.033508746275823
     0.006107036766727    -0.033508746275258     0.035370417794653
   1  90
     0.014740192416646    -0.005643290426421     0.007980817857009
    -0.005643290426421     0.008223881923246    -0.004607727338153
     0.007980817857009    -0.004607727338153     0.011482037169657
   1  91
     0.014740192416646     0.005643290426001    -0.007980817857306
     0.005643290426001     0.008223881922924    -0.004607727338040
    -0.007980817857306    -0.004607727338040     0.011482037169978
   1  92
    -0.016399951901175     0.023024774235669    -0.032561947994167
     0.004318327110825     0.011676156074519    -0.033508746274982
    -0.006107036766398    -0.033508746275548     0.035370417795433
   1  93
     0.016497039273084     0.014674759598998     0.045300399521066
    -0.004031687525845    -0.021220835098968    -0.011445101022833
     0.032072943906901     0.011465524155254     0.035370417794939
   1  94
     0.021872673899593     0.000000000000000     0.000000000000000
     0.000000000000000    -0.003999021761683     0.009147025721340
     0.000000000000000     0.009147025721340     0.018638711942075
   1  95
     0.016497039273071    -0.014674759599471    -0.045300399521395
     0.004031687525369    -0.021220835098665    -0.011445101021623
    -0.032072943907226     0.011465524156464     0.035370417796498
   1  96
    -0.055300674547193     0.000000000000000     0.000000000000000
     0.000000000000000    -0.055300674546297     0.000000000000000
     0.000000000000000     0.000000000000000     0.103606550195601
   1  97
    -0.055300674547193     0.000000000000000     0.000000000000000
     0.000000000000000    -0.055300674546297     0.000000000000000
     0.000000000000000     0.000000000000000     0.103606550195601
   1  98
     0.016497039273071    -0.014674759599471    -0.045300399521395
     0.004031687525369    -0.021220835098665    -0.011445101021623
    -0.032072943907226     0.011465524156464     0.035370417796498
   1  99
     0.021872673899593     0.000000000000000     0.000000000000000
     0.000000000000000    -0.003999021761683     0.009147025721340
     0.000000000000000     0.009147025721340     0.018638711942075
   1 100
     0.016497039273084     0.014674759598998     0.045300399521066
    -0.004031687525845    -0.021220835098968    -0.011445101022833
     0.032072943906901     0.011465524155254     0.035370417794939
   1 101
    -0.016399951901175     0.023024774235669    -0.032561947994167
     0.004318327110825     0.011676156074519    -0.033508746274982
    -0.006107036766398    -0.033508746275548     0.035370417795433
   1 102
     0.014740192416646     0.005643290426001    -0.007980817857306
     0.005643290426001     0.008223881922924    -0.004607727338040
    -0.007980817857306    -0.004607727338040     0.011482037169978
   1 103
     0.014740192416646    -0.005643290426421     0.007980817857009
    -0.005643290426421     0.008223881923246    -0.004607727338153
     0.007980817857009    -0.004607727338153     0.011482037169657
   1 104
    -0.016399951901175    -0.023024774235204     0.032561947994496
    -0.004318327110360     0.011676156075298    -0.033508746275823
     0.006107036766727    -0.033508746275258     0.035370417794653
   1 105
     0.002468902153592     0.011202772840725     0.007921556643939
     0.011202772840725     0.015404749983690    -0.004573512860762
     0.007921556643939    -0.004573512860762     0.018638711941639
   1 106
     0.004965726676504     0.000000000000000     0.000000000000000
     0.000000000000000     0.017998347663068     0.009215454676538
     0.000000000000000     0.009215454676538     0.011482037170096
   1 107
     0.002468902153585    -0.011202772840793    -0.007921556643987
    -0.011202772840793     0.015404749984329    -0.004573512860311
    -0.007921556643987    -0.004573512860311     0.018638711941958
   1 108
    -0.013983288479123     0.000000000000000     0.000000000000000
     0.000000000000000     0.009662206659188    -0.015762266932798
     0.000000000000000    -0.015762266932798     0.020807812494208
   1 109
    -0.007182781111020     0.009639863147512     0.012738451526696
     0.028346310272355     0.002458985284358     0.044953847297085
     0.025965907140860     0.022043222118998     0.035370417796004
   1 110
    -0.007182781111032    -0.009639863147303    -0.012738451526538
    -0.028346310272144     0.002458985285440     0.044953847298020
    -0.025965907140707     0.022043222119932     0.035370417796784
   1 111
     0.003750832874722    -0.010238799737456    -0.013650523585367
    -0.010238799737456    -0.008071914694085     0.007881133466662
    -0.013650523585367     0.007881133466662     0.020807812494960
   1 112
     0.003750832874730     0.010238799737349     0.013650523585296
     0.010238799737349    -0.008071914694669     0.007881133466067
     0.013650523585296     0.007881133466067     0.020807812494410
   1 113
    -0.463367876963071    -0.170135983253413     0.240608614978615
    -0.170135983253413    -0.266911765484338     0.138915448620042
     0.240608614978615     0.138915448620042    -0.365139821229637
   1 114
     0.059064679516479     0.004318327109750    -0.006107036767159
     0.023024774234594    -0.013478721064297     0.002065622133991
    -0.032561947994927     0.002065622134556    -0.014939336482191
   1 115
     0.059064679516479    -0.004318327111435     0.006107036765967
    -0.023024774236280    -0.013478721063517     0.002065622134281
     0.032561947993735     0.002065622133715    -0.014939336482970
   1 116
    -0.463367876963071     0.170135983266587    -0.240608614969299
     0.170135983266587    -0.266911765494036     0.138915448623471
    -0.240608614969299     0.138915448623471    -0.365139821219939
   1 117
     0.016497039273084     0.047601212788296    -0.001264637140079
     0.028894765663456     0.029088919177717    -0.006321660048798
    -0.014492092754248    -0.029232285226885    -0.014939336482821
   1 118
     0.021872673899593     0.000000000000000     0.000000000000000
     0.000000000000000     0.021872673899239     0.000000000000000
     0.000000000000000     0.000000000000000    -0.007232983719400
   1 119
     0.016497039273071    -0.047601212788765     0.001264637139743
    -0.028894765663921     0.029088919179897    -0.006321660048252
     0.014492092753908    -0.029232285226339    -0.014939336483139
   1 120
    -0.055300674547193     0.000000000000000     0.000000000000000
     0.000000000000000     0.085950191889635    -0.049939722752147
     0.000000000000000    -0.049939722752147    -0.037644316243351
   1 121
    -0.007182781111020     0.015223214990783     0.004842399626441
     0.033929662115623     0.052768739561822     0.004256037914670
     0.018069855240610     0.027166663092757    -0.014939336482536
   1 122
    -0.007182781111032    -0.015223214990565    -0.004842399626297
    -0.033929662115408     0.052768739563223     0.004256037915492
    -0.018069855240462     0.027166663093579    -0.014939336482074
   1 123
     0.003750832874722    -0.016282770304243    -0.005103058439234
    -0.016282770304243     0.022552556511533    -0.002946252162977
    -0.005103058439234    -0.002946252162977    -0.009816658711314
   1 124
     0.003750832874730     0.016282770304140     0.005103058439157
     0.016282770304140     0.022552556510605    -0.002946252163450
     0.005103058439157    -0.002946252163450    -0.009816658711519
   1 125
    -0.168683709758704     0.000000000002332     0.000000000001649
     0.000000000002332    -0.561595932688724    -0.277830897254477
     0.000000000001649    -0.277830897254477    -0.365139821233186
   1 126
     0.050637475281450    -0.061163419321251    -0.043249068563541
    -0.061163419321251    -0.019987957935575     0.024969861377542
    -0.043249068563541     0.024969861377542    -0.037644316240969
   1 127
     0.031953418329788     0.000000000000000     0.000000000000000
     0.000000000000000    -0.005650028943537     0.005892504326827
     0.000000000000000     0.005892504326827    -0.009816658711238
   1 128
     0.050637475281485     0.061163419319808     0.043249068562520
     0.061163419319808    -0.019987957939062     0.024969861375077
     0.043249068562520     0.024969861375077    -0.037644316242713
   2   1
    -0.231241507466550     0.000000000003302     0.000000000002335
     0.000000000003302     0.102952665781783    -0.050282213421822
     0.000000000002335    -0.050282213421822     0.138507559866856
   2   2
     2.329085447880380    -0.000000000032968    -0.000000000023312
    -0.000000000032968     2.329085447842644     0.000000000023312
    -0.000000000023312     0.000000000023312     2.329085447875949
   2   3
    -0.231241507466550     0.000000000003302     0.000000000002335
     0.000000000003302     0.102952665781783    -0.050282213421822
     0.000000000002335    -0.050282213421822     0.138507559866856
   2   4
    -0.048251752773634     0.000000000000000     0.000000000000000
     0.000000000000000     0.019361190394355    -0.012019577144255
     0.000000000000000    -0.012019577144255     0.027860314900283
   2   5
     0.019404122470979     0.144710321914152     0.043545674184326
     0.144710321914152    -0.147692964155786     0.025141106707849
     0.043545674184326     0.025141106707849     0.138507559867498
   2   6
     0.019404122470912    -0.144710321914730    -0.043545674184694
    -0.144710321914730    -0.147692964147537     0.025141106712006
    -0.043545674184694     0.025141106712006     0.138507559869254
   2   7
    -0.035308896732593    -0.019836179171262    -0.000564318784261
    -0.019836179171262    -0.012404049962614    -0.000325809602009
    -0.000564318784261    -0.000325809602009     0.026913389971140
   2   8
    -0.035308896732585     0.019836179172266     0.000564318784976
     0.019836179172266    -0.012404049963745    -0.000325809602425
     0.000564318784976    -0.000325809602425     0.026913389971117
   2   9
    -0.000951626578776     0.000000000000000     0.000000000000000
     0.000000000000000    -0.046761320116436     0.000651619203708
     0.000000000000000     0.000651619203708     0.026913389971148
   2  10
     0.002457954602585    -0.029277263203991    -0.010409259150240
    -0.029277263203991    -0.031348516980218     0.006009788572350
    -0.010409259150240     0.006009788572350     0.027860314900856
   2  11
    -0.000951626578776     0.000000000000000     0.000000000000000
     0.000000000000000    -0.046761320116436     0.000651619203708
     0.000000000000000     0.000651619203708     0.026913389971148
   2  12
     0.002457954602599     0.029277263203916     0.010409259150196
     0.029277263203916    -0.031348516981886     0.006009788571463
     0.010409259150196     0.006009788571463     0.027860314900437
   2  13
    -0.035308896732593    -0.019836179171262    -0.000564318784261
    -0.019836179171262    -0.012404049962614    -0.000325809602009
    -0.000564318784261    -0.000325809602009     0.026913389971140
   2  14
     0.019404122470912    -0.144710321914730    -0.043545674184694
    -0.144710321914730    -0.147692964147537     0.025141106712006
    -0.043545674184694     0.025141106712006     0.138507559869254
   2  15
     0.019404122470979     0.144710321914152     0.043545674184326
     0.144710321914152    -0.147692964155786     0.025141106707849