 128  128
   1   1
     2.329085447880329    -0.000000000032968    -0.000000000023312
    -0.000000000032968     2.329085447842593     0.000000000023312
    -0.000000000023312     0.000000000023312     2.329085447875897
   1   2
    -0.231241507466544     0.000000000003302     0.000000000002335
     0.000000000003302     0.102952665781784    -0.050282213421823
     0.000000000002335    -0.050282213421823     0.138507559866857
   1   3
    -0.048251752773635     0.000000000000000     0.000000000000000
     0.000000000000000     0.019361190394351    -0.012019577144257
     0.000000000000000    -0.012019577144257     0.027860314900280
   1   4
    -0.231241507466544     0.000000000003302     0.000000000002335
     0.000000000003302     0.102952665781784    -0.050282213421823
     0.000000000002335    -0.050282213421823     0.138507559866857
   1   5
     0.019404122470914    -0.144710321914728    -0.043545674184694
    -0.144710321914728    -0.147692964147533     0.025141106712006
    -0.043545674184694     0.025141106712006     0.138507559869255
   1   6
    -0.035308896732593    -0.019836179171262    -0.000564318784262
    -0.019836179171262    -0.012404049962614    -0.000325809602010
    -0.000564318784262    -0.000325809602010     0.026913389971139
   1   7
    -0.035308896732586     0.019836179172266     0.000564318784977
     0.019836179172266    -0.012404049963744    -0.000325809602425
     0.000564318784977    -0.000325809602425     0.026913389971116
   1   8
     0.019404122470981     0.144710321914150     0.043545674184327
     0.144710321914150    -0.147692964155782     0.025141106707849
     0.043545674184327     0.025141106707849     0.138507559867499
   1   9
     0.002457954602581    -0.029277263203989    -0.010409259150242
    -0.029277263203989    -0.031348516980219     0.006009788572351
    -0.010409259150242     0.006009788572351     0.027860314900853
   1  10
    -0.000951626578776     0.000000000000000     0.000000000000000
     0.000000000000000    -0.046761320116436     0.000651619203708
     0.000000000000000     0.000651619203708     0.026913389971147
   1  11
     0.002457954602595     0.029277263203914     0.010409259150197
     0.029277263203914    -0.031348516981888     0.006009788571464
     0.010409259150197     0.006009788571464     0.027860314900433
   1  12
    -0.000951626578776     0.000000000000000     0.000000000000000
     0.000000000000000    -0.046761320116436     0.000651619203708
     0.000000000000000     0.000651619203708     0.026913389971147
   1  13
     0.019404122470914    -0.144710321914728    -0.043545674184694
    -0.144710321914728    -0.147692964147533     0.025141106712006
    -0.043545674184694     0.025141106712006     0.138507559869255
   1  14
     0.019404122470981     0.144710321914150     0.043545674184327
     0.144710321914150    -0.147692964155782     0.025141106707849
     0.043545674184327     0.025141106707849     0.138507559867499
   1  15
    -0.035308896732586     0.019836179172266     0.000564318784977
     0.019836179172266    -0.012404049963744    -0.000325809602425
     0.000564318784977    -0.000325809602425     0.026913389971116
   1  16
    -0.035308896732593    -0.019836179171262    -0.000564318784262
    -0.019836179171262    -0.012404049962614    -0.000325809602010
    -0.000564318784262    -0.000325809602010     0.026913389971139
   1  17
     0.019404122470914    -0.089292029313017    -0.121918975185589
    -0.089292029313017     0.122509676792767    -0.070389953137631
    -0.121918975185589    -0.070389953137631    -0.131695081076821
   1  18
    -0.035308896732593    -0.007144104575697    -0.018513622811960
    -0.007144104575697     0.022340001374730    -0.012609686755009
    -0.018513622811960    -0.012609686755009    -0.007830661366947
   1  19
    -0.035308896732586     0.007144104576706     0.018513622812668
     0.007144104576706     0.022340001374322    -0.012609686755680
     0.018513622812668    -0.012609686755680    -0.007830661367693
   1  20
     0.019404122470981     0.089292029312478     0.121918975185167
     0.089292029312478     0.122509676787677    -0.070389953142905
     0.121918975185167    -0.070389953142905    -0.131695081081736
   1  21
     0.001740800797675    -0.028534757418552    -0.020177120470604
    -0.028534757418552    -0.014709696154333    -0.009728424293142
    -0.020177120470604    -0.009728424293142    -0.007830661366855
   1  22
    -0.008260228646570     0.000000000000000     0.000000000000000
     0.000000000000000    -0.008260228646436     0.000000000000000
     0.000000000000000     0.000000000000000    -0.008260228646554
   1  23
     0.001740800797691     0.028534757418498     0.020177120470566
     0.028534757418498    -0.014709696155960    -0.009728424294292
     0.020177120470566    -0.009728424294292    -0.007830661367669
   1  24
     0.001962214709693     0.000000000000000     0.000000000000000
     0.000000000000000    -0.091163334779805    -0.065849707547117
     0.000000000000000    -0.065849707547117    -0.044600560037041
   1  25
     0.014114752898347    -0.021390652842526    -0.001663497658412
    -0.021390652842526    -0.027083648255010     0.022338111049107
    -0.001663497658412     0.022338111049107    -0.007830661366582
   1  26
     0.014114752898356     0.021390652842121     0.001663497658130
     0.021390652842121    -0.027083648256229     0.022338111048628
     0.001663497658130     0.022338111048628    -0.007830661366649
   1  27
    -0.012619681942712     0.007641280546303     0.000122734144817
     0.007641280546303    -0.021443072703173     0.000070860591137
     0.000122734144817     0.000070860591137    -0.008107774552964
   1  28
    -0.012619681942715    -0.007641280545947    -0.000122734144564
    -0.007641280545947    -0.021443072702738     0.000070860591294
    -0.000122734144564     0.000070860591294    -0.008107774552959
   1  29
     0.174062453952823    -0.000000000002474    -0.000000000001749
    -0.000000000002474    -0.032148654689175     0.140779906282708
    -0.000000000001749     0.140779906282708    -0.131695081075023
   1  30
    -0.067881947408545     0.040324545800933    -0.057027519566158
     0.040324545800933    -0.021319172663862     0.032924853773295
    -0.057027519566158     0.032924853773295    -0.044600560033901
   1  31
    -0.025854768083597     0.000000000000000     0.000000000000000
     0.000000000000000    -0.008207986562286    -0.000141721182944
     0.000000000000000    -0.000141721182944    -0.008107774552966
   1  32
    -0.067881947408545    -0.040324545798998     0.057027519567526
    -0.040324545798998    -0.021319172661563     0.032924853772483
     0.057027519567526     0.032924853772483    -0.044600560036200
   1  33
     0.002457954602581    -0.019573031377332    -0.024133115411912
    -0.019573031377332     0.025058944472008    -0.013933260678413
    -0.024133115411912    -0.013933260678413    -0.028547146552580
   1  34
    -0.000951626578776     0.000000000000000     0.000000000000000
     0.000000000000000     0.019136879390421    -0.022646912665430
     0.000000000000000    -0.022646912665430    -0.038984809537118
   1  35
     0.002457954602595     0.019573031377265     0.024133115411856
     0.019573031377265     0.025058944470892    -0.013933260679495
     0.024133115411856    -0.013933260679495    -0.028547146553552
   1  36
    -0.000951626578776     0.000000000000000     0.000000000000000
     0.000000000000000     0.019136879390421    -0.022646912665430
     0.000000000000000    -0.022646912665430    -0.038984809537118
   1  37
     0.014114752898347    -0.008698578246961    -0.019612801686109
    -0.008698578246961     0.004070499913781     0.011323456333223
    -0.019612801686109     0.011323456333223    -0.038984809536038
   1  38
     0.014114752898356     0.008698578246561     0.019612801685822
     0.008698578246561     0.004070499913285     0.011323456332489
     0.019612801685822     0.011323456332489    -0.038984809536829
   1  39
    -0.012619681942712     0.002662808376805     0.007163357006818
     0.002662808376805    -0.009544935676518    -0.004135766096290
     0.007163357006818    -0.004135766096290    -0.020005911579874
   1  40
    -0.012619681942715    -0.002662808376448    -0.007163357006567
    -0.002662808376448    -0.009544935676366    -0.004135766096032
    -0.007163357006567    -0.004135766096032    -0.020005911579586
   1  41
     0.036359439406487     0.000000000000000     0.000000000000000
     0.000000000000000    -0.008842540331905     0.027866521358330
     0.000000000000000     0.027866521358330    -0.028547146552224
   1  42
    -0.008007562543538     0.000000000000000     0.000000000000000
     0.000000000000000    -0.014157055075544     0.008271532191991
     0.000000000000000     0.008271532191991    -0.020005911579480
   1  43
    -0.016584138818031     0.000000000000000     0.000000000000000
     0.000000000000000    -0.016584138817762     0.000000000000000
     0.000000000000000     0.000000000000000    -0.016584138817999
   1  44
    -0.008007562543538     0.000000000000000     0.000000000000000
     0.000000000000000    -0.014157055075544     0.008271532191991
     0.000000000000000     0.008271532191991    -0.020005911579480
   1  45
     0.014114752898347    -0.008698578246961    -0.019612801686109
    -0.008698578246961     0.004070499913781     0.011323456333223
    -0.019612801686109     0.011323456333223    -0.038984809536038
   1  46
    -0.012619681942715    -0.002662808376448    -0.007163357006567
    -0.002662808376448    -0.009544935676366    -0.004135766096032
    -0.007163357006567    -0.004135766096032    -0.020005911579586
   1  47
    -0.012619681942712     0.002662808376805     0.007163357006818
     0.002662808376805    -0.009544935676518    -0.004135766096290
     0.007163357006818    -0.004135766096290    -0.020005911579874
   1  48
     0.014114752898356     0.008698578246561     0.019612801685822
     0.008698578246561     0.004070499913285     0.011323456332489
     0.019612801685822     0.011323456332489    -0.038984809536829
   1  49
     0.019404122470914    -0.089292029313017    -0.121918975185589
    -0.089292029313017     0.122509676792767    -0.070389953137631
    -0.121918975185589    -0.070389953137631    -0.131695081076822
   1  50
     0.019404122470981     0.089292029312478     0.121918975185167
     0.089292029312478     0.122509676787677    -0.070389953142905
     0.121918975185167    -0.070389953142905    -0.131695081081736
   1  51
    -0.035308896732586     0.007144104576706     0.018513622812668
     0.007144104576706     0.022340001374322    -0.012609686755680
     0.018513622812668    -0.012609686755680    -0.007830661367693
   1  52
    -0.035308896732593    -0.007144104575697    -0.018513622811960
    -0.007144104575697     0.022340001374730    -0.012609686755009
    -0.018513622811960    -0.012609686755009    -0.007830661366947
   1  53
     0.174062453952823    -0.000000000002474    -0.000000000001749
    -0.000000000002474    -0.032148654689175     0.140779906282708
    -0.000000000001749     0.140779906282708    -0.131695081075023
   1  54
    -0.067881947408545    -0.040324545798998     0.057027519567526
    -0.040324545798998    -0.021319172661563     0.032924853772483
     0.057027519567526     0.032924853772483    -0.044600560036200
   1  55
    -0.025854768083597     0.000000000000000     0.000000000000000
     0.000000000000000    -0.008207986562286    -0.000141721182944
     0.000000000000000    -0.000141721182944    -0.008107774552966
   1  56
    -0.067881947408545     0.040324545800933    -0.057027519566158
     0.040324545800933    -0.021319172663862     0.032924853773295
    -0.057027519566158     0.032924853773295    -0.044600560033901
   1  57
     0.014114752898347    -0.021390652842526    -0.001663497658412
    -0.021390652842526    -0.027083648255010     0.022338111049107
    -0.001663497658412     0.022338111049107    -0.007830661366582
   1  58
    -0.012619681942715    -0.007641280545947    -0.000122734144564
    -0.007641280545947    -0.021443072702738     0.000070860591294
    -0.000122734144564     0.000070860591294    -0.008107774552959
   1  59
    -0.012619681942712     0.007641280546303     0.000122734144817
     0.007641280546303    -0.021443072703173     0.000070860591137
     0.000122734144817     0.000070860591137    -0.008107774552964
   1  60
     0.014114752898356     0.021390652842121     0.001663497658130
     0.021390652842121    -0.027083648256229     0.022338111048628
     0.001663497658130     0.022338111048628    -0.007830661366649
   1  61
     0.001740800797675    -0.028534757418552    -0.020177120470604
    -0.028534757418552    -0.014709696154333    -0.009728424293142
    -0.020177120470604    -0.009728424293142    -0.007830661366855
   1  62
     0.001962214709693     0.000000000000000     0.000000000000000
     0.000000000000000    -0.091163334779805    -0.065849707547117
     0.000000000000000    -0.065849707547117    -0.044600560037041
   1  63
     0.001740800797691     0.028534757418498     0.020177120470566
     0.028534757418498    -0.014709696155960    -0.009728424294292
     0.020177120470566    -0.009728424294292    -0.007830661367669
   1  64
    -0.008260228646570     0.000000000000000     0.000000000000000
     0.000000000000000    -0.008260228646436     0.000000000000000
     0.000000000000000     0.000000000000000    -0.008260228646554
   1  65
     0.050637475281494     0.061163419319815     0.043249068562525
     0.061163419319815    -0.019987957939061     0.024969861375080
     0.043249068562525     0.024969861375080    -0.037644316242714
   1  66
     0.031953418329790     0.000000000000000     0.000000000000000
     0.000000000000000    -0.005650028943536     0.005892504326825
     0.000000000000000     0.005892504326825    -0.009816658711236
   1  67
     0.050637475281459    -0.061163419321259    -0.043249068563546
    -0.061163419321259    -0.019987957935575     0.024969861377545
    -0.043249068563546     0.024969861377545    -0.037644316240971
   1  68
    -0.168683709758707     0.000000000002332     0.000000000001649
     0.000000000002332    -0.561595932688719    -0.277830897254472
     0.000000000001649    -0.277830897254472    -0.365139821233186
   1  69
     0.003750832874731     0.016282770304140     0.005103058439156
     0.016282770304140     0.022552556510607    -0.002946252163450
     0.005103058439156    -0.002946252163450    -0.009816658711517
   1  70
     0.003750832874723    -0.016282770304243    -0.005103058439233
    -0.016282770304243     0.022552556511535    -0.002946252162976
    -0.005103058439233    -0.002946252162976    -0.009816658711312
   1  71
    -0.007182781111032    -0.015223214990564    -0.004842399626297
    -0.033929662115408     0.052768739563222     0.004256037915492
    -0.018069855240462     0.027166663093579    -0.014939336482074
   1  72
    -0.007182781111020     0.015223214990783     0.004842399626441
     0.033929662115623     0.052768739561821     0.004256037914670
     0.018069855240610     0.027166663092758    -0.014939336482536
   1  73
    -0.055300674547196     0.000000000000000     0.000000000000000
     0.000000000000000     0.085950191889648    -0.049939722752153
     0.000000000000000    -0.049939722752153    -0.037644316243352
   1  74
     0.016497039273071    -0.047601212788764     0.001264637139744
    -0.028894765663921     0.029088919179896    -0.006321660048252
     0.014492092753908    -0.029232285226339    -0.014939336483139
   1  75
     0.021872673899594     0.000000000000000     0.000000000000000
     0.000000000000000     0.021872673899240     0.000000000000000
     0.000000000000000     0.000000000000000    -0.007232983719400
   1  76
     0.016497039273084     0.047601212788296    -0.001264637140079
     0.028894765663456     0.029088919177716    -0.006321660048798
    -0.014492092754248    -0.029232285226885    -0.014939336482821
   1  77
    -0.463367876963069     0.170135983266584    -0.240608614969295
     0.170135983266584    -0.266911765494037     0.138915448623468
    -0.240608614969295     0.138915448623468    -0.365139821219938
   1  78
     0.059064679516478    -0.004318327111435     0.006107036765967
    -0.023024774236280    -0.013478721063517     0.002065622134281
     0.032561947993735     0.002065622133715    -0.014939336482970
   1  79
     0.059064679516478     0.004318327109750    -0.006107036767159
     0.023024774234594    -0.013478721064296     0.002065622133991
    -0.032561947994927     0.002065622134556    -0.014939336482190
   1  80
    -0.463367876963069    -0.170135983253410     0.240608614978610
    -0.170135983253410    -0.266911765484340     0.138915448620040
     0.240608614978610     0.138915448620040    -0.365139821229636
   1  81
     0.003750832874731     0.010238799737348     0.013650523585297
     0.010238799737348    -0.008071914694667     0.007881133466067
     0.013650523585297     0.007881133466067     0.020807812494411
   1  82
     0.003750832874723    -0.010238799737455    -0.013650523585368
    -0.010238799737455    -0.008071914694083     0.007881133466662
    -0.013650523585368     0.007881133466662     0.020807812494961
   1  83
    -0.007182781111032    -0.009639863147303    -0.012738451526537
    -0.028346310272143     0.002458985285441     0.044953847298019
    -0.025965907140706     0.022043222119932     0.035370417796783
   1  84
    -0.007182781111020     0.009639863147511     0.012738451526695
     0.028346310272355     0.002458985284358     0.044953847297085
     0.025965907140860     0.022043222118998     0.035370417796003
   1  85
    -0.013983288479121     0.000000000000000     0.000000000000000
     0.000000000000000     0.009662206659189    -0.015762266932799
     0.000000000000000    -0.015762266932799     0.020807812494209
   1  86
     0.002468902153586    -0.011202772840793    -0.007921556643987
    -0.011202772840793     0.015404749984330    -0.004573512860311
    -0.007921556643987    -0.004573512860311     0.018638711941959
   1  87
     0.004965726676504     0.000000000000000     0.000000000000000
     0.000000000000000     0.017998347663069     0.009215454676539
     0.000000000000000     0.009215454676539     0.011482037170097
   1  88
     0.002468902153592     0.011202772840725     0.007921556643939
     0.011202772840725     0.015404749983691    -0.004573512860763
     0.007921556643939    -0.004573512860763     0.018638711941640
   1  89
    -0.016399951901175    -0.023024774235204     0.032561947994496
    -0.004318327110360     0.011676156075298    -0.033508746275823
     0.006107036766727    -0.033508746275258     0.035370417794653
   1  90
     0.014740192416648    -0.005643290426421     0.007980817857010
    -0.005643290426421     0.008223881923247    -0.004607727338154
     0.007980817857010    -0.004607727338154     0.011482037169657
   1  91
     0.014740192416648     0.005643290426002    -0.007980817857306
     0.005643290426002     0.008223881922925    -0.004607727338040
    -0.007980817857306    -0.004607727338040     0.011482037169979
   1  92
    -0.016399951901175     0.023024774235669    -0.032561947994167
     0.004318327110825     0.011676156074518    -0.033508746274982
    -0.006107036766398    -0.033508746275547     0.035370417795432
   1  93
     0.016497039273084     0.014674759598998     0.045300399521065
    -0.004031687525845    -0.021220835098968    -0.011445101022833
     0.032072943906901     0.011465524155254     0.035370417794938
   1  94
     0.021872673899594     0.000000000000000     0.000000000000000
     0.000000000000000    -0.003999021761682     0.009147025721340
     0.000000000000000     0.009147025721340     0.018638711942076
   1  95
     0.016497039273071    -0.014674759599471    -0.045300399521395
     0.004031687525369    -0.021220835098664    -0.011445101021623
    -0.032072943907226     0.011465524156464     0.035370417796498
   1  96
    -0.055300674547196     0.000000000000000     0.000000000000000
     0.000000000000000    -0.055300674546300     0.000000000000000
     0.000000000000000     0.000000000000000     0.103606550195616
   1  97
    -0.055300674547196     0.000000000000000     0.000000000000000
     0.000000000000000    -0.055300674546300     0.000000000000000
     0.000000000000000     0.000000000000000     0.103606550195616
   1  98
     0.016497039273071    -0.014674759599471    -0.045300399521395
     0.004031687525369    -0.021220835098664    -0.011445101021623
    -0.032072943907226     0.011465524156464     0.035370417796498
   1  99
     0.021872673899594     0.000000000000000     0.000000000000000
     0.000000000000000    -0.003999021761682     0.009147025721340
     0.000000000000000     0.009147025721340     0.018638711942076
   1 100
     0.016497039273084     0.014674759598998     0.045300399521065
    -0.004031687525845    -0.021220835098968    -0.011445101022833
     0.032072943906901     0.011465524155254     0.035370417794938
   1 101
    -0.016399951901175     0.023024774235669    -0.032561947994167
     0.004318327110825     0.011676156074518    -0.033508746274982
    -0.006107036766398    -0.033508746275547     0.035370417795432
   1 102
     0.014740192416648     0.005643290426002    -0.007980817857306
     0.005643290426002     0.008223881922925    -0.004607727338040
    -0.007980817857306    -0.004607727338040     0.011482037169979
   1 103
     0.014740192416648    -0.005643290426421     0.007980817857010
    -0.005643290426421     0.008223881923247    -0.004607727338154
     0.007980817857010    -0.004607727338154     0.011482037169657
   1 104
    -0.016399951901175    -0.023024774235204     0.032561947994496
    -0.004318327110360     0.011676156075298    -0.033508746275823
     0.006107036766727    -0.033508746275258     0.035370417794653
   1 105
     0.002468902153592     0.011202772840725     0.007921556643939
     0.011202772840725     0.015404749983691    -0.004573512860763
     0.007921556643939    -0.004573512860763     0.018638711941640
   1 106
     0.004965726676504     0.000000000000000     0.000000000000000
     0.000000000000000     0.017998347663069     0.009215454676539
     0.000000000000000     0.009215454676539     0.011482037170097
   1 107
     0.002468902153586    -0.011202772840793    -0.007921556643987
    -0.011202772840793     0.015404749984330    -0.004573512860311
    -0.007921556643987    -0.004573512860311     0.018638711941959
   1 108
    -0.013983288479121     0.000000000000000     0.000000000000000
     0.000000000000000     0.009662206659189    -0.015762266932799
     0.000000000000000    -0.015762266932799     0.020807812494209
   1 109
    -0.007182781111020     0.009639863147511     0.012738451526695
     0.028346310272355     0.002458985284358     0.044953847297085
     0.025965907140860     0.022043222118998     0.035370417796003
   1 110
    -0.007182781111032    -0.009639863147303    -0.012738451526537
    -0.028346310272143     0.002458985285441     0.044953847298019
    -0.025965907140706     0.022043222119932     0.035370417796783
   1 111
     0.003750832874723    -0.010238799737455    -0.013650523585368
    -0.010238799737455    -0.008071914694083     0.007881133466662
    -0.013650523585368     0.007881133466662     0.020807812494961
   1 112
     0.003750832874731     0.010238799737348     0.013650523585297
     0.010238799737348    -0.008071914694667     0.007881133466067
     0.013650523585297     0.007881133466067     0.020807812494411
   1 113
    -0.463367876963069    -0.170135983253410     0.240608614978610
    -0.170135983253410    -0.266911765484340     0.138915448620040
     0.240608614978610     0.138915448620040    -0.365139821229636
   1 114
     0.059064679516478     0.004318327109750    -0.006107036767159
     0.023024774234594    -0.013478721064296     0.002065622133991
    -0.032561947994927     0.002065622134556    -0.014939336482190
   1 115
     0.059064679516478    -0.004318327111435     0.006107036765967
    -0.023024774236280    -0.013478721063517     0.002065622134281
     0.032561947993735     0.002065622133715    -0.014939336482970
   1 116
    -0.463367876963069     0.170135983266584    -0.240608614969295
     0.170135983266584    -0.266911765494038     0.138915448623468
    -0.240608614969295     0.138915448623468    -0.365139821219938
   1 117
     0.016497039273084     0.047601212788296    -0.001264637140079
     0.028894765663456     0.029088919177716    -0.006321660048798
    -0.014492092754248    -0.029232285226885    -0.014939336482821
   1 118
     0.021872673899594     0.000000000000000     0.000000000000000
     0.000000000000000     0.021872673899240     0.000000000000000
     0.000000000000000     0.000000000000000    -0.007232983719400
   1 119
     0.016497039273071    -0.047601212788764     0.001264637139744
    -0.028894765663921     0.029088919179896    -0.006321660048252
     0.014492092753908    -0.029232285226339    -0.014939336483139
   1 120
    -0.055300674547196     0.000000000000000     0.000000000000000
     0.000000000000000     0.085950191889648    -0.049939722752153
     0.000000000000000    -0.049939722752153    -0.037644316243352
   1 121
    -0.007182781111020     0.015223214990783     0.004842399626441
     0.033929662115623     0.052768739561821     0.004256037914670
     0.018069855240610     0.027166663092758    -0.014939336482536
   1 122
    -0.007182781111032    -0.015223214990564    -0.004842399626297
    -0.033929662115408     0.052768739563222     0.004256037915492
    -0.018069855240462     0.027166663093579    -0.014939336482074
   1 123
     0.003750832874723    -0.016282770304243    -0.005103058439233
    -0.016282770304243     0.022552556511535    -0.002946252162976
    -0.005103058439233    -0.002946252162976    -0.009816658711312
   1 124
     0.003750832874731     0.016282770304140     0.005103058439156
     0.016282770304140     0.022552556510607    -0.002946252163450
     0.005103058439156    -0.002946252163450    -0.009816658711517
   1 125
    -0.168683709758707     0.000000000002332     0.000000000001649
     0.000000000002332    -0.561595932688720    -0.277830897254472
     0.000000000001649    -0.277830897254472    -0.365139821233186
   1 126
     0.050637475281459    -0.061163419321259    -0.043249068563546
    -0.061163419321259    -0.019987957935575     0.024969861377545
    -0.043249068563546     0.024969861377545    -0.037644316240971
   1 127
     0.031953418329790     0.000000000000000     0.000000000000000
     0.000000000000000    -0.005650028943536     0.005892504326825
     0.000000000000000     0.005892504326825    -0.009816658711236
   1 128
     0.050637475281494     0.061163419319815     0.043249068562525
     0.061163419319815    -0.019987957939061     0.024969861375080
     0.043249068562525     0.024969861375080    -0.037644316242714
   2   1
    -0.231241507466544     0.000000000003302     0.000000000002335
     0.000000000003302     0.102952665781784    -0.050282213421823
     0.000000000002335    -0.050282213421823     0.138507559866857
   2   2
     2.329085447880329    -0.000000000032968    -0.000000000023312
    -0.000000000032968     2.329085447842593     0.000000000023312
    -0.000000000023312     0.000000000023312     2.329085447875897
   2   3
    -0.231241507466544     0.000000000003302     0.000000000002335
     0.000000000003302     0.102952665781784    -0.050282213421823
     0.000000000002335    -0.050282213421823     0.138507559866857
   2   4
    -0.048251752773635     0.000000000000000     0.000000000000000
     0.000000000000000     0.019361190394351    -0.012019577144257
     0.000000000000000    -0.012019577144257     0.027860314900280
   2   5
     0.019404122470981     0.144710321914150     0.043545674184327
     0.144710321914150    -0.147692964155782     0.025141106707849
     0.043545674184327     0.025141106707849     0.138507559867499
   2   6
     0.019404122470914    -0.144710321914728    -0.043545674184694
    -0.144710321914728    -0.147692964147533     0.025141106712006
    -0.043545674184694     0.025141106712006     0.138507559869255
   2   7
    -0.035308896732593    -0.019836179171262    -0.000564318784262
    -0.019836179171262    -0.012404049962614    -0.000325809602010
    -0.000564318784262    -0.000325809602010     0.026913389971139
   2   8
    -0.035308896732586     0.019836179172266     0.000564318784977
     0.019836179172266    -0.012404049963744    -0.000325809602425
     0.000564318784977    -0.000325809602425     0.026913389971116
   2   9
    -0.000951626578776     0.000000000000000     0.000000000000000
     0.000000000000000    -0.046761320116436     0.000651619203708
     0.000000000000000     0.000651619203708     0.026913389971147
   2  10
     0.002457954602581    -0.029277263203989    -0.010409259150242
    -0.029277263203989    -0.031348516980219     0.006009788572351
    -0.010409259150242     0.006009788572351     0.027860314900853
   2  11
    -0.000951626578776     0.000000000000000     0.000000000000000
     0.000000000000000    -0.046761320116436     0.000651619203708
     0.000000000000000     0.000651619203708     0.026913389971147
   2  12
     0.002457954602595     0.029277263203914     0.010409259150197
     0.029277263203914    -0.031348516981888     0.006009788571464
     0.010409259150197     0.006009788571464     0.027860314900433
   2  13
    -0.035308896732593    -0.019836179171262    -0.000564318784262
    -0.019836179171262    -0.012404049962614    -0.000325809602010
    -0.000564318784262    -0.000325809602010     0.026913389971139
   2  14
     0.019404122470914    -0.144710321914728    -0.043545674184694
    -0.144710321914728    -0.147692964147533     0.025141106712006
    -0.043545674184694     0.025141106712006     0.138507559869255
   2  15
     0.019404122470981     0.144710321914150     0.043545674184327
     0.144710321914150    -0.147692964155782     0.025141106707849