nqpoint: 404    
npath: 4      
segment_nqpoint:
- 101
- 101
- 101
- 101
labels:
- [ '$\Gamma$', 'H' ]
- [ 'H', 'P' ]
- [ 'P', '$\Gamma$' ]
- [ '$\Gamma$', 'N' ]
reciprocal_lattice:
- [   0.32389451,   0.11451401,   0.19834409 ] # a*
- [  -0.00000000,   0.34354201,   0.19834409 ] # b*
- [  -0.00000000,  -0.00000001,   0.39668816 ] # c*
natom: 1      
lattice:
- [     3.087424902028544,     0.000000019494633,     0.000000033738931 ] # a
- [    -1.029141681161498,     2.910852096188803,     0.000000033744934 ] # b
- [    -1.029141681183352,    -1.455426157817963,     2.520871798567311 ] # c
points:
- symbol: Zr # 1
  coordinates: [  0.000000000000000,  0.000000000000000,  0.000000000000000 ]
  mass: 91.224000

phonon:
- q-position: [    0.0000000,    0.0000000,    0.0000000 ]
  distance:    0.0000000
  band:
  - # 1
    frequency:   -0.0000000546
    eigenvector:
    - # atom 1
      - [ -0.00831722520959,  0.00000000000000 ]
      - [ -0.04853810768460,  0.00000000000000 ]
      - [  0.99878670188745,  0.00000000000000 ]
  - # 2
    frequency:   -0.0000000278
    eigenvector:
    - # atom 1
      - [  0.91552487655673,  0.00000000000000 ]
      - [  0.40134557034671,  0.00000000000000 ]
      - [  0.02712809556268,  0.00000000000000 ]
  - # 3
    frequency:    0.0000000183
    eigenvector:
    - # atom 1
      - [  0.40217536494743,  0.00000000000000 ]
      - [ -0.91463970243231,  0.00000000000000 ]
      - [ -0.04109976355080,  0.00000000000000 ]

- q-position: [   -0.0050000,    0.0050000,    0.0050000 ]
  distance:    0.0028050
  band:
  - # 1
    frequency:    0.0646745352
    eigenvector:
    - # atom 1
      - [  0.81649648386518, -0.00000000000000 ]
      - [  0.28832936067680,  0.00000008639885 ]
      - [  0.50019963175466, -0.00000004988239 ]
  - # 2
    frequency:    0.0646745367
    eigenvector:
    - # atom 1
      - [  0.00032599230653,  0.00000000000000 ]
      - [  0.86614056988461, -0.00021639882877 ]
      - [ -0.49980030461279,  0.00012493791831 ]
  - # 3
    frequency:    0.0957798907
    eigenvector:
    - # atom 1
      - [ -0.57735031442342,  0.00000000000000 ]
      - [  0.40824826532786,  0.00000000000000 ]
      - [  0.70710675876559,  0.00000000000000 ]

- q-position: [   -0.0100000,    0.0100000,    0.0100000 ]
  distance:    0.0056100
  band:
  - # 1
    frequency:    0.1293968641
    eigenvector:
    - # atom 1
      - [  0.81649648184352, -0.00000000000000 ]
      - [  0.28832405204905,  0.00000001430479 ]
      - [  0.50020269506188, -0.00000000825887 ]
  - # 2
    frequency:    0.1293968671
    eigenvector:
    - # atom 1
      - [  0.00033099666165,  0.00000000000000 ]
      - [  0.86614236336442, -0.00003528679603 ]
      - [ -0.49979725406059,  0.00002037284058 ]
  - # 3
    frequency:    0.1913761476
    eigenvector:
    - # atom 1
      - [ -0.57735031443515,  0.00000000000000 ]
      - [  0.40824826533662,  0.00000000000000 ]
      - [  0.70710675875095,  0.00000000000000 ]

- q-position: [   -0.0150000,    0.0150000,    0.0150000 ]
  distance:    0.0084150
  band:
  - # 1
    frequency:    0.1942140879
    eigenvector:
    - # atom 1
      - [  0.81649648193881, -0.00000000000000 ]
      - [  0.28832433767852,  0.00000002275118 ]
      - [  0.50020253026529, -0.00000001313540 ]
  - # 2
    frequency:    0.1942140925
    eigenvector:
    - # atom 1
      - [  0.00033072742802,  0.00000000000000 ]
      - [  0.86614226717384, -0.00005616786915 ]
      - [ -0.49979741838859,  0.00003242853341 ]
  - # 3
    frequency:    0.2866063360
    eigenvector:
    - # atom 1
      - [ -0.57735031445468,  0.00000000000000 ]
      - [  0.40824826535134,  0.00000000000000 ]
      - [  0.70710675872650,  0.00000000000000 ]

- q-position: [   -0.0200000,    0.0200000,    0.0200000 ]
  distance:    0.0112200
  band:
  - # 1
    frequency:    0.2591719347
    eigenvector:
    - # atom 1
      - [  0.81649648200800, -0.00000000000000 ]
      - [  0.28832456979048,  0.00000000515071 ]
      - [  0.50020239635940, -0.00000000297376 ]
  - # 2
    frequency:    0.2591719408
    eigenvector:
    - # atom 1
      - [  0.00033050865292,  0.00000000000000 ]
      - [  0.86614219162552, -0.00001272443542 ]
      - [ -0.49979755344969,  0.00000734645600 ]
  - # 3
    frequency:    0.3812904156
    eigenvector:
    - # atom 1
      - [ -0.57735031448210,  0.00000000000000 ]
      - [  0.40824826537215,  0.00000000000000 ]
      - [  0.70710675869210,  0.00000000000000 ]

- q-position: [   -0.0250000,    0.0250000,    0.0250000 ]
  distance:    0.0140250
  band:
  - # 1
    frequency:    0.3243141005
    eigenvector:
    - # atom 1
      - [  0.81649648199133, -0.00000000000000 ]
      - [  0.28832459188513, -0.00000000346868 ]
      - [  0.50020238365092,  0.00000000200264 ]
  - # 2
    frequency:    0.3243141079
    eigenvector:
    - # atom 1
      - [  0.00033048786792,  0.00000000000000 ]
      - [  0.86614218430881,  0.00000856964743 ]
      - [ -0.49979756626120, -0.00000494768811 ]
  - # 3
    frequency:    0.4752519267
    eigenvector:
    - # atom 1
      - [ -0.57735031451759,  0.00000000000000 ]
      - [  0.40824826539939,  0.00000000000000 ]
      - [  0.70710675864740,  0.00000000000000 ]

- q-position: [   -0.0300000,    0.0300000,    0.0300000 ]
  distance:    0.0168301
  band:
  - # 1
    frequency:    0.3896816239
    eigenvector:
    - # atom 1
      - [  0.81649648189248, -0.00000000000000 ]
      - [  0.28832441392661, -0.00000000339718 ]
      - [  0.50020248639033,  0.00000000196136 ]
  - # 2
    frequency:    0.3896816327
    eigenvector:
    - # atom 1
      - [  0.00033065567969,  0.00000000000000 ]
      - [  0.86614224353404,  0.00000838874311 ]
      - [ -0.49979746351779, -0.00000484324295 ]
  - # 3
    frequency:    0.5683191648
    eigenvector:
    - # atom 1
      - [ -0.57735031456129,  0.00000000000000 ]
      - [  0.40824826543333,  0.00000000000000 ]
      - [  0.70710675859212,  0.00000000000000 ]

- q-position: [   -0.0350000,    0.0350000,    0.0350000 ]
  distance:    0.0196351
  band:
  - # 1
    frequency:    0.4553123037
    eigenvector:
    - # atom 1
      - [  0.81649648185113, -0.00000000000000 ]
      - [  0.28832440217777,  0.00000000693454 ]
      - [  0.50020249323005, -0.00000000400366 ]
  - # 2
    frequency:    0.4553123138
    eigenvector:
    - # atom 1
      - [  0.00033066681937,  0.00000000000000 ]
      - [  0.86614224729705, -0.00001712305297 ]
      - [ -0.49979745669195,  0.00000988599895 ]
  - # 3
    frequency:    0.6603263373
    eigenvector:
    - # atom 1
      - [ -0.57735031461339,  0.00000000000000 ]
      - [  0.40824826547440,  0.00000000000000 ]
      - [  0.70710675852587,  0.00000000000000 ]

- q-position: [   -0.0400000,    0.0400000,    0.0400000 ]
  distance:    0.0224401
  band:
  - # 1
    frequency:    0.5212401671
    eigenvector:
    - # atom 1
      - [  0.81649648171018, -0.00000000000000 ]
      - [  0.28832414572068,  0.00000000124297 ]
      - [  0.50020264128584, -0.00000000071763 ]
  - # 2
    frequency:    0.5212401784
    eigenvector:
    - # atom 1
      - [  0.00033090865214,  0.00000000000000 ]
      - [  0.86614233280819, -0.00000306695539 ]
      - [ -0.49979730872075,  0.00000177070747 ]
  - # 3
    frequency:    0.7511146996
    eigenvector:
    - # atom 1
      - [ -0.57735031467417,  0.00000000000000 ]
      - [  0.40824826552309,  0.00000000000000 ]
      - [  0.70710675844813,  0.00000000000000 ]

- q-position: [   -0.0450000,    0.0450000,    0.0450000 ]
  distance:    0.0252451
  band:
  - # 1
    frequency:    0.5874949971
    eigenvector:
    - # atom 1
      - [  0.81649648159362, -0.00000000000000 ]
      - [  0.28832396980413, -0.00000000112211 ]
      - [  0.50020274287695,  0.00000000064785 ]
  - # 2
    frequency:    0.5874950096
    eigenvector:
    - # atom 1
      - [  0.00033107457270,  0.00000000000000 ]
      - [  0.86614239134199,  0.00000276734824 ]
      - [ -0.49979720717487, -0.00000159772921 ]
  - # 3
    frequency:    0.8405336638
    eigenvector:
    - # atom 1
      - [ -0.57735031474388,  0.00000000000000 ]
      - [  0.40824826558005, -0.00000000000000 ]
      - [  0.70710675835833,  0.00000000000000 ]

- q-position: [   -0.0500000,    0.0500000,    0.0500000 ]
  distance:    0.0280501
  band:
  - # 1
    frequency:    0.6541019252
    eigenvector:
    - # atom 1
      - [  0.81649648148444, -0.00000000000000 ]
      - [  0.28832383046948, -0.00000000666947 ]
      - [  0.50020282336961,  0.00000000385062 ]
  - # 2
    frequency:    0.6541019387
    eigenvector:
    - # atom 1
      - [  0.00033120602079,  0.00000000000000 ]
      - [  0.86614243754137,  0.00001644172424 ]
      - [ -0.49979712667444, -0.00000949263365 ]
  - # 3
    frequency:    0.9284418775
    eigenvector:
    - # atom 1
      - [ -0.57735031482289,  0.00000000000000 ]
      - [  0.40824826564600,  0.00000000000000 ]
      - [  0.70710675825574,  0.00000000000000 ]

- q-position: [   -0.0550000,    0.0550000,    0.0550000 ]
  distance:    0.0308551
  band:
  - # 1
    frequency:    0.7210810926
    eigenvector:
    - # atom 1
      - [  0.81649648128300, -0.00000000000000 ]
      - [  0.28832346796531,  0.00000000439418 ]
      - [  0.50020303265068, -0.00000000253698 ]
  - # 2
    frequency:    0.7210811070
    eigenvector:
    - # atom 1
      - [  0.00033154785999,  0.00000000000000 ]
      - [  0.86614255826535, -0.00001082146430 ]
      - [ -0.49979691743891,  0.00000624777515 ]
  - # 3
    frequency:    1.0147082647
    eigenvector:
    - # atom 1
      - [ -0.57735031491158,  0.00000000000000 ]
      - [  0.40824826572187,  0.00000000000000 ]
      - [  0.70710675813952,  0.00000000000000 ]

- q-position: [   -0.0600000,    0.0600000,    0.0600000 ]
  distance:    0.0336601
  band:
  - # 1
    frequency:    0.7884473846
    eigenvector:
    - # atom 1
      - [  0.81649648115060, -0.00000000000000 ]
      - [  0.28832330481178, -0.00000000587129 ]
      - [  0.50020312691055,  0.00000000338979 ]
  - # 2
    frequency:    0.7884474000
    eigenvector:
    - # atom 1
      - [  0.00033170178955,  0.00000000000000 ]
      - [  0.86614261248234,  0.00001445239248 ]
      - [ -0.49979682325691, -0.00000834409246 ]
  - # 3
    frequency:    1.0992130252
    eigenvector:
    - # atom 1
      - [ -0.57735031501040,  0.00000000000000 ]
      - [  0.40824826580870, -0.00000000000000 ]
      - [  0.70710675800871,  0.00000000000000 ]

- q-position: [   -0.0650000,    0.0650000,    0.0650000 ]
  distance:    0.0364651
  band:
  - # 1
    frequency:    0.8562102397
    eigenvector:
    - # atom 1
      - [  0.81649648094539, -0.00000000000000 ]
      - [  0.28832297135137, -0.00000000238844 ]
      - [  0.50020331945612,  0.00000000137897 ]
  - # 2
    frequency:    0.8562102557
    eigenvector:
    - # atom 1
      - [  0.00033201627984,  0.00000000000000 ]
      - [  0.86614272353920,  0.00000587366875 ]
      - [ -0.49979663082026, -0.00000339116414 ]
  - # 3
    frequency:    1.1818485853
    eigenvector:
    - # atom 1
      - [ -0.57735031511985,  0.00000000000000 ]
      - [  0.40824826590778,  0.00000000000000 ]
      - [  0.70710675786213,  0.00000000000000 ]

- q-position: [   -0.0700000,    0.0700000,    0.0700000 ]
  distance:    0.0392701
  band:
  - # 1
    frequency:    0.9243735321
    eigenvector:
    - # atom 1
      - [  0.81649648075382, -0.00000000000000 ]
      - [  0.28832269450166,  0.00000000250228 ]
      - [  0.50020347934808, -0.00000000144469 ]
  - # 2
    frequency:    0.9243735488
    eigenvector:
    - # atom 1
      - [  0.00033227742140,  0.00000000000000 ]
      - [  0.86614281564223, -0.00000614879083 ]
      - [ -0.49979647102862,  0.00000355000595 ]
  - # 3
    frequency:    1.2625204929
    eigenvector:
    - # atom 1
      - [ -0.57735031524053,  0.00000000000000 ]
      - [  0.40824826602063,  0.00000000000000 ]
      - [  0.70710675769845, -0.00000000000000 ]

- q-position: [   -0.0750000,    0.0750000,    0.0750000 ]
  distance:    0.0420751
  band:
  - # 1
    frequency:    0.9929355297
    eigenvector:
    - # atom 1
      - [  0.81649648051738, -0.00000000000000 ]
      - [  0.28832232287142,  0.00000000112534 ]
      - [  0.50020369394554, -0.00000000064971 ]
  - # 2
    frequency:    0.9929355469
    eigenvector:
    - # atom 1
      - [  0.00033262792951,  0.00000000000000 ]
      - [  0.86614293930776, -0.00000276235097 ]
      - [ -0.49979625652440,  0.00000159484403 ]
  - # 3
    frequency:    1.3411482510
    eigenvector:
    - # atom 1
      - [ -0.57735031537308,  0.00000000000000 ]
      - [  0.40824826614906,  0.00000000000000 ]
      - [  0.70710675751607,  0.00000000000000 ]

- q-position: [   -0.0800000,    0.0800000,    0.0800000 ]
  distance:    0.0448801
  band:
  - # 1
    frequency:    1.0618889222
    eigenvector:
    - # atom 1
      - [  0.81649648028063, -0.00000000000000 ]
      - [  0.28832197410305,  0.00000000327563 ]
      - [  0.50020389536534, -0.00000000189119 ]
  - # 2
    frequency:    1.0618889398
    eigenvector:
    - # atom 1
      - [  0.00033295690691,  0.00000000000000 ]
      - [  0.86614305530421, -0.00000803270174 ]
      - [ -0.49979605520847,  0.00000463768239 ]
  - # 3
    frequency:    1.4176660800
    eigenvector:
    - # atom 1
      - [ -0.57735031551826,  0.00000000000000 ]
      - [  0.40824826629525, -0.00000000000000 ]
      - [  0.70710675731313, -0.00000000000000 ]

- q-position: [   -0.0850000,    0.0850000,    0.0850000 ]
  distance:    0.0476852
  band:
  - # 1
    frequency:    1.1312209185
    eigenvector:
    - # atom 1
      - [  0.81649648002184, -0.00000000000000 ]
      - [  0.28832159317459, -0.00000000104844 ]
      - [  0.50020411535813,  0.00000000060532 ]
  - # 2
    frequency:    1.1312209364
    eigenvector:
    - # atom 1
      - [  0.00033331622405,  0.00000000000000 ]
      - [  0.86614318206264,  0.00000256828108 ]
      - [ -0.49979583537470, -0.00000148279774 ]
  - # 3
    frequency:    1.4920236016
    eigenvector:
    - # atom 1
      - [ -0.57735031567693,  0.00000000000000 ]
      - [  0.40824826646180, -0.00000000000000 ]
      - [  0.70710675708742, -0.00000000000000 ]

- q-position: [   -0.0900000,    0.0900000,    0.0900000 ]
  distance:    0.0504902
  band:
  - # 1
    frequency:    1.2009134087
    eigenvector:
    - # atom 1
      - [  0.81649647973400, -0.00000000000000 ]
      - [  0.28832116382120,  0.00000000257766 ]
      - [  0.50020436331041, -0.00000000148821 ]
  - # 2
    frequency:    1.2009134268
    eigenvector:
    - # atom 1
      - [  0.00033372121631,  0.00000000000000 ]
      - [  0.86614332487686, -0.00000630660143 ]
      - [ -0.49979558756393,  0.00000364111794 ]
  - # 3
    frequency:    1.5641864335
    eigenvector:
    - # atom 1
      - [ -0.57735031585004,  0.00000000000000 ]
      - [  0.40824826665189, -0.00000000000000 ]
      - [  0.70710675683633, -0.00000000000000 ]

- q-position: [   -0.0950000,    0.0950000,    0.0950000 ]
  distance:    0.0532952
  band:
  - # 1
    frequency:    1.2709431856
    eigenvector:
    - # atom 1
      - [  0.81649647941845, -0.00000000000000 ]
      - [  0.28832069169627, -0.00000000129884 ]
      - [  0.50020463596118,  0.00000000074989 ]
  - # 2
    frequency:    1.2709432038
    eigenvector:
    - # atom 1
      - [  0.00033416655764,  0.00000000000000 ]
      - [  0.86614348195197,  0.00000317355988 ]
      - [ -0.49979531509550, -0.00000183225561 ]
  - # 3
    frequency:    1.6341366866
    eigenvector:
    - # atom 1
      - [ -0.57735031603870,  0.00000000000000 ]
      - [  0.40824826686936,  0.00000000000000 ]
      - [  0.70710675655673, -0.00000000000000 ]

- q-position: [   -0.1000000,    0.1000000,    0.1000000 ]
  distance:    0.0561002
  band:
  - # 1
    frequency:    1.3412822210
    eigenvector:
    - # atom 1
      - [  0.81649647907445, -0.00000000000000 ]
      - [  0.28832017735291,  0.00000000308294 ]
      - [  0.50020493299268, -0.00000000177994 ]
  - # 2
    frequency:    1.3412822391
    eigenvector:
    - # atom 1
      - [  0.00033465173066,  0.00000000000000 ]
      - [  0.86614365302125, -0.00000752188780 ]
      - [ -0.49979501824627,  0.00000434276385 ]
  - # 3
    frequency:    1.7018733512
    eigenvector:
    - # atom 1
      - [ -0.57735031624417,  0.00000000000000 ]
      - [  0.40824826711893,  0.00000000000000 ]
      - [  0.70710675624487,  0.00000000000000 ]

- q-position: [   -0.1050000,    0.1050000,    0.1050000 ]
  distance:    0.0589052
  band:
  - # 1
    frequency:    1.4118979905
    eigenvector:
    - # atom 1
      - [  0.81649647869751, -0.00000000000000 ]
      - [  0.28831961207365,  0.00000000149308 ]
      - [  0.50020525943683, -0.00000000086203 ]
  - # 2
    frequency:    1.4118980084
    eigenvector:
    - # atom 1
      - [  0.00033518495802,  0.00000000000000 ]
      - [  0.86614384107960, -0.00000363707223 ]
      - [ -0.49979469204193,  0.00000209986459 ]
  - # 3
    frequency:    1.7674125624
    eigenvector:
    - # atom 1
      - [ -0.57735031646792,  0.00000000000000 ]
      - [  0.40824826740643,  0.00000000000000 ]
      - [  0.70710675589620,  0.00000000000000 ]

- q-position: [   -0.1100000,    0.1100000,    0.1100000 ]
  distance:    0.0617102
  band:
  - # 1
    frequency:    1.4827538416
    eigenvector:
    - # atom 1
      - [  0.81649647829411, -0.00000000000000 ]
      - [  0.28831901584872, -0.00000000303848 ]
      - [  0.50020560376044,  0.00000000175427 ]
  - # 2
    frequency:    1.4827538593
    eigenvector:
    - # atom 1
      - [  0.00033574740139,  0.00000000000000 ]
      - [  0.86614403936842,  0.00000738920565 ]
      - [ -0.49979434797469, -0.00000426615979 ]
  - # 3
    frequency:    1.8307877316
    eigenvector:
    - # atom 1
      - [ -0.57735031671161,  0.00000000000000 ]
      - [  0.40824826773912,  0.00000000000000 ]
      - [  0.70710675550514,  0.00000000000000 ]

- q-position: [   -0.1150000,    0.1150000,    0.1150000 ]
  distance:    0.0645152
  band:
  - # 1
    frequency:    1.5538093987
    eigenvector:
    - # atom 1
      - [  0.81649647786188, -0.00000000000000 ]
      - [  0.28831838633890, -0.00000000048775 ]
      - [  0.50020596731554,  0.00000000028160 ]
  - # 2
    frequency:    1.5538094160
    eigenvector:
    - # atom 1
      - [  0.00033634127331,  0.00000000000000 ]
      - [  0.86614424876548,  0.00000118406266 ]
      - [ -0.49979398476088, -0.00000068361888 ]
  - # 3
    frequency:    1.8920495306
    eigenvector:
    - # atom 1
      - [ -0.57735031697721,  0.00000000000000 ]
      - [  0.40824826812616,  0.00000000000000 ]
      - [  0.70710675506482,  0.00000000000000 ]

- q-position: [   -0.1200000,    0.1200000,    0.1200000 ]
  distance:    0.0673202
  band:
  - # 1
    frequency:    1.6250209976
    eigenvector:
    - # atom 1
      - [  0.81649647737299, -0.00000000000000 ]
      - [  0.28831765637752, -0.00000000032748 ]
      - [  0.50020638886210,  0.00000000018907 ]
  - # 2
    frequency:    1.6250210144
    eigenvector:
    - # atom 1
      - [  0.00033702989986,  0.00000000000000 ]
      - [  0.86614449153845,  0.00000079335947 ]
      - [ -0.49979356357160, -0.00000045804630 ]
  - # 3
    frequency:    1.9512657157
    eigenvector:
    - # atom 1
      - [ -0.57735031726703,  0.00000000000000 ]
      - [  0.40824826857923,  0.00000000000000 ]
      - [  0.70710675456661,  0.00000000000000 ]

- q-position: [   -0.1250000,    0.1250000,    0.1250000 ]
  distance:    0.0701252
  band:
  - # 1
    frequency:    1.6963421451
    eigenvector:
    - # atom 1
      - [  0.81649647684283, -0.00000000000000 ]
      - [  0.28831687103116, -0.00000000173337 ]
      - [  0.50020684239827,  0.00000000100076 ]
  - # 2
    frequency:    1.6963421614
    eigenvector:
    - # atom 1
      - [  0.00033777080965,  0.00000000000000 ]
      - [  0.86614475269849,  0.00000419010021 ]
      - [ -0.49979311045706, -0.00000241915545 ]
  - # 3
    frequency:    2.0085207784
    eigenvector:
    - # atom 1
      - [ -0.57735031758381,  0.00000000000000 ]
      - [  0.40824826911344,  0.00000000000000 ]
      - [  0.70710675399953,  0.00000000000000 ]

- q-position: [   -0.1300000,    0.1300000,    0.1300000 ]
  distance:    0.0729302
  band:
  - # 1
    frequency:    1.7677239966
    eigenvector:
    - # atom 1
      - [  0.81649647623897, -0.00000000000000 ]
      - [  0.28831595374367, -0.00000000170977 ]
      - [  0.50020737210303,  0.00000000098713 ]
  - # 2
    frequency:    1.7677240123
    eigenvector:
    - # atom 1
      - [  0.00033863618604,  0.00000000000000 ]
      - [  0.86614505773983,  0.00000412247094 ]
      - [ -0.49979258123319, -0.00000238010968 ]
  - # 3
    frequency:    2.0639154093
    eigenvector:
    - # atom 1
      - [ -0.57735031793087,  0.00000000000000 ]
      - [  0.40824826974862, -0.00000000000000 ]
      - [  0.70710675334943,  0.00000000000000 ]

- q-position: [   -0.1350000,    0.1350000,    0.1350000 ]
  distance:    0.0757352
  band:
  - # 1
    frequency:    1.8391158455
    eigenvector:
    - # atom 1
      - [  0.81649647560005, -0.00000000000000 ]
      - [  0.28831501143575,  0.00000000061317 ]
      - [  0.50020791628431, -0.00000000035401 ]
  - # 2
    frequency:    1.8391158604
    eigenvector:
    - # atom 1
      - [  0.00033952525764,  0.00000000000000 ]
      - [  0.86614537105682, -0.00000147455151 ]
      - [ -0.49979203766821,  0.00000085133271 ]
  - # 3
    frequency:    2.1175657651
    eigenvector:
    - # atom 1
      - [ -0.57735031831228,  0.00000000000000 ]
      - [  0.40824827051130,  0.00000000000000 ]
      - [  0.70710675259768,  0.00000000000000 ]

- q-position: [   -0.1400000,    0.1400000,    0.1400000 ]
  distance:    0.0785402
  band:
  - # 1
    frequency:    1.9104656186
    eigenvector:
    - # atom 1
      - [  0.81649647487355, -0.00000000000000 ]
      - [  0.28831391994009, -0.00000000341637 ]
      - [  0.50020854659616,  0.00000000197244 ]
  - # 2
    frequency:    1.9104656328
    eigenvector:
    - # atom 1
      - [  0.00034055510200,  0.00000000000000 ]
      - [  0.86614573390962,  0.00000819089889 ]
      - [ -0.49979140805234, -0.00000472901766 ]
  - # 3
    frequency:    2.1696025270
    eigenvector:
    - # atom 1
      - [ -0.57735031873316,  0.00000000000000 ]
      - [  0.40824827143769,  0.00000000000000 ]
      - [  0.70710675171919,  0.00000000000000 ]

- q-position: [   -0.1450000,    0.1450000,    0.1450000 ]
  distance:    0.0813453
  band:
  - # 1
    frequency:    1.9817203730
    eigenvector:
    - # atom 1
      - [  0.81649647405754, -0.00000000000000 ]
      - [  0.28831268753470, -0.00000000282063 ]
      - [  0.50020925826910,  0.00000000162849 ]
  - # 2
    frequency:    1.9817203863
    eigenvector:
    - # atom 1
      - [  0.00034171795383,  0.00000000000000 ]
      - [  0.86614614361423,  0.00000673958773 ]
      - [ -0.49979069726283, -0.00000389110279 ]
  - # 3
    frequency:    2.2201697451
    eigenvector:
    - # atom 1
      - [ -0.57735031920008,  0.00000000000000 ]
      - [  0.40824827257845, -0.00000000000000 ]
      - [  0.70710675067932,  0.00000000000000 ]

- q-position: [   -0.1500000,    0.1500000,    0.1500000 ]
  distance:    0.0841503
  band:
  - # 1
    frequency:    2.0528267872
    eigenvector:
    - # atom 1
      - [  0.81649647313956, -0.00000000000000 ]
      - [  0.28831129991116, -0.00000000386141 ]
      - [  0.50021005956917,  0.00000000222938 ]
  - # 2
    frequency:    2.0528267995
    eigenvector:
    - # atom 1
      - [  0.00034302735608,  0.00000000000000 ]
      - [  0.86614660481337,  0.00000919117981 ]
      - [ -0.49978989704662, -0.00000530653016 ]
  - # 3
    frequency:    2.2694234624
    eigenvector:
    - # atom 1
      - [ -0.57735031972182,  0.00000000000000 ]
      - [  0.40824827400657, -0.00000000000000 ]
      - [  0.70710674942881, -0.00000000000000 ]

- q-position: [   -0.1550000,    0.1550000,    0.1550000 ]
  distance:    0.0869553
  band:
  - # 1
    frequency:    2.1237316430
    eigenvector:
    - # atom 1
      - [  0.81649647206473, -0.00000000000000 ]
      - [  0.28830964251467,  0.00000000460895 ]
      - [  0.50021101661091, -0.00000000266098 ]
  - # 2
    frequency:    2.1237316543
    eigenvector:
    - # atom 1
      - [  0.00034459137780,  0.00000000000000 ]
      - [  0.86614715562360, -0.00001092074361 ]
      - [ -0.49978894135716,  0.00000630509434 ]
  - # 3
    frequency:    2.3175301225
    eigenvector:
    - # atom 1
      - [ -0.57735032031050,  0.00000000000000 ]
      - [  0.40824827583095,  0.00000000000000 ]
      - [  0.70710674789484,  0.00000000000000 ]

- q-position: [   -0.1600000,    0.1600000,    0.1600000 ]
  distance:    0.0897603
  band:
  - # 1
    frequency:    2.1943822925
    eigenvector:
    - # atom 1
      - [  0.81649647082316, -0.00000000000000 ]
      - [  0.28830772569653,  0.00000000384627 ]
      - [  0.50021212344067, -0.00000000222065 ]
  - # 2
    frequency:    2.1943823028
    eigenvector:
    - # atom 1
      - [  0.00034640038624,  0.00000000000000 ]
      - [  0.86614779255670, -0.00000906600854 ]
      - [ -0.49978783633291,  0.00000523426258 ]
  - # 3
    frequency:    2.3646647635
    eigenvector:
    - # atom 1
      - [ -0.57735032098380,  0.00000000000000 ]
      - [  0.40824827822130,  0.00000000000000 ]
      - [  0.70710674596503,  0.00000000000000 ]

- q-position: [   -0.1650000,    0.1650000,    0.1650000 ]
  distance:    0.0925653
  band:
  - # 1
    frequency:    2.2647271058
    eigenvector:
    - # atom 1
      - [  0.81649646931854, -0.00000000000000 ]
      - [  0.28830536252344,  0.00000000379491 ]
      - [  0.50021348795349, -0.00000000219099 ]
  - # 2
    frequency:    2.2647271150
    eigenvector:
    - # atom 1
      - [  0.00034863080385,  0.00000000000000 ]
      - [  0.86614857764052, -0.00000888771411 ]
      - [ -0.49978647420929,  0.00000513132429 ]
  - # 3
    frequency:    2.4110090127
    eigenvector:
    - # atom 1
      - [ -0.57735032176914,  0.00000000000000 ]
      - [  0.40824828145694,  0.00000000000000 ]
      - [  0.70710674345570,  0.00000000000000 ]

- q-position: [   -0.1700000,    0.1700000,    0.1700000 ]
  distance:    0.0953703
  band:
  - # 1
    frequency:    2.3347158951
    eigenvector:
    - # atom 1
      - [  0.81649646744371, -0.00000000000000 ]
      - [  0.28830237820820, -0.00000000266205 ]
      - [  0.50021521105563,  0.00000000153694 ]
  - # 2
    frequency:    2.3347159032
    eigenvector:
    - # atom 1
      - [  0.00035144775859,  0.00000000000000 ]
      - [  0.86614956885838,  0.00000618457528 ]
      - [ -0.49978475446928, -0.00000357066637 ]
  - # 3
    frequency:    2.4567488999
    eigenvector:
    - # atom 1
      - [ -0.57735032271266,  0.00000000000000 ]
      - [  0.40824828603154,  0.00000000000000 ]
      - [  0.70710674004417,  0.00000000000000 ]

- q-position: [   -0.1750000,    0.1750000,    0.1750000 ]
  distance:    0.0981753
  band:
  - # 1
    frequency:    2.4043003113
    eigenvector:
    - # atom 1
      - [  0.81649646502718, -0.00000000000000 ]
      - [  0.28829851900910, -0.00000000168852 ]
      - [  0.50021743925544,  0.00000000097487 ]
  - # 2
    frequency:    2.4043003182
    eigenvector:
    - # atom 1
      - [  0.00035509114563,  0.00000000000000 ]
      - [  0.86615085017652,  0.00000388257372 ]
      - [ -0.49978253133606, -0.00000224160514 ]
  - # 3
    frequency:    2.5020725172
    eigenvector:
    - # atom 1
      - [ -0.57735032390083,  0.00000000000000 ]
      - [  0.40824829290590, -0.00000000000000 ]
      - [  0.70710673510512, -0.00000000000000 ]

- q-position: [   -0.1800000,    0.1800000,    0.1800000 ]
  distance:    0.1009803
  band:
  - # 1
    frequency:    2.4734342093
    eigenvector:
    - # atom 1
      - [  0.81649646166476, -0.00000000000000 ]
      - [  0.28829316074812,  0.00000000779702 ]
      - [  0.50022053292001, -0.00000000450161 ]
  - # 2
    frequency:    2.4734342151
    eigenvector:
    - # atom 1
      - [  0.00036015092157,  0.00000000000000 ]
      - [  0.86615262814803, -0.00001767657982 ]
      - [ -0.49977944598288,  0.00001020557924 ]
  - # 3
    frequency:    2.5471675587
    eigenvector:
    - # atom 1
      - [ -0.57735032552189,  0.00000000000000 ]
      - [  0.40824830422876,  0.00000000000000 ]
      - [  0.70710672724427,  0.00000000000000 ]

- q-position: [   -0.1850000,    0.1850000,    0.1850000 ]
  distance:    0.1037853
  band:
  - # 1
    frequency:    2.5420739790
    eigenvector:
    - # atom 1
      - [  0.81649645652194, -0.00000000000000 ]
      - [  0.28828526160324, -0.00000000025966 ]
      - [  0.50022509376226,  0.00000000014992 ]
  - # 2
    frequency:    2.5420739836
    eigenvector:
    - # atom 1
      - [  0.00036761352589,  0.00000000000000 ]
      - [  0.86615524721121,  0.00000057672481 ]
      - [ -0.49977490191920, -0.00000033297229 ]
  - # 3
    frequency:    2.5922187823
    eigenvector:
    - # atom 1
      - [ -0.57735032809154,  0.00000000000000 ]
      - [  0.40824832598618,  0.00000000000000 ]
      - [  0.70710671258451, -0.00000000000000 ]

- q-position: [   -0.1900000,    0.1900000,    0.1900000 ]
  distance:    0.1065903
  band:
  - # 1
    frequency:    2.6101788381
    eigenvector:
    - # atom 1
      - [  0.81649644668369, -0.00000000000000 ]
      - [  0.28827181620541, -0.00000000332384 ]
      - [  0.50023285831154,  0.00000000191902 ]
  - # 2
    frequency:    2.6101788415
    eigenvector:
    - # atom 1
      - [  0.00038033036386,  0.00000000000000 ]
      - [  0.86615969505880,  0.00000713564816 ]
      - [ -0.49976718373317, -0.00000411976995 ]
  - # 3
    frequency:    2.6374054414
    eigenvector:
    - # atom 1
      - [ -0.57735033376774,  0.00000000000000 ]
      - [  0.40824838344612, -0.00000000000000 ]
      - [  0.70710667477539, -0.00000000000000 ]

- q-position: [   -0.1950000,    0.1950000,    0.1950000 ]
  distance:    0.1093953
  band:
  - # 1
    frequency:    2.6777110851