nqpoint: 204    
npath: 4      
segment_nqpoint:
- 51
- 51
- 51
- 51
labels:
- [ '$\Gamma$', 'K' ]
- [ 'K', 'M' ]
- [ 'M', '$\Gamma$' ]
- [ '$\Gamma$', 'A' ]
reciprocal_lattice:
- [   0.31136464,   0.17976646,   0.00000000 ] # a*
- [   0.00000000,   0.35953292,   0.00000000 ] # b*
- [   0.00000000,   0.00000000,   0.19221740 ] # c*
natom: 2      
lattice:
- [     3.211668444827870,     0.000000000000000,     0.000000000000000 ] # a
- [    -1.605834222413930,     2.781386461750960,     0.000000000000000 ] # b
- [     0.000000000000000,     0.000000000000000,     5.202442629952290 ] # c
points:
- symbol: Zr # 1
  coordinates: [  0.000000000000000,  0.000000000000000,  0.000000000000000 ]
  mass: 91.224000
- symbol: Zr # 2
  coordinates: [  0.666666666666660,  0.333333333333340,  0.500000000000000 ]
  mass: 91.224000

phonon:
- q-position: [    0.0000000,    0.0000000,    0.0000000 ]
  distance:    0.0000000
  band:
  - # 1
    frequency:   -0.0000000512
    eigenvector:
    - # atom 1
      - [ -0.01919098631547, -0.00000000000000 ]
      - [  0.70049328985026,  0.00000000000000 ]
      - [ -0.09455610460888,  0.00000000000000 ]
    - # atom 2
      - [ -0.01919098631547,  0.00000000000000 ]
      - [  0.70049328985054,  0.00000000000000 ]
      - [ -0.09455610460888,  0.00000000000000 ]
  - # 2
    frequency:    0.0000000715
    eigenvector:
    - # atom 1
      - [ -0.70680531127555,  0.00000000000000 ]
      - [ -0.02003617972760,  0.00000000000000 ]
      - [ -0.00498030665622,  0.00000000000000 ]
    - # atom 2
      - [ -0.70680531127583,  0.00000000000000 ]
      - [ -0.02003617972801,  0.00000000000000 ]
      - [ -0.00498030665623,  0.00000000000000 ]
  - # 3
    frequency:    0.0000000902
    eigenvector:
    - # atom 1
      - [ -0.00761301495561,  0.00000000000000 ]
      - [  0.09438062500576,  0.00000000000000 ]
      - [  0.70073842454000,  0.00000000000000 ]
    - # atom 2
      - [ -0.00761301495561,  0.00000000000000 ]
      - [  0.09438062500580,  0.00000000000000 ]
      - [  0.70073842454000,  0.00000000000000 ]
  - # 4
    frequency:    2.0532736338
    eigenvector:
    - # atom 1
      - [  0.07090094194945,  0.00000000000000 ]
      - [  0.70354321575218,  0.00000000000000 ]
      - [ -0.00000000000000,  0.00000000000000 ]
    - # atom 2
      - [ -0.07090094194902,  0.00000000000000 ]
      - [ -0.70354321575188,  0.00000000000000 ]
      - [  0.00000000000000,  0.00000000000000 ]
  - # 5
    frequency:    2.0532736338
    eigenvector:
    - # atom 1
      - [ -0.70354321575215, -0.00000000000000 ]
      - [  0.07090094194925,  0.00000000000000 ]
      - [  0.00000000000000,  0.00000000000000 ]
    - # atom 2
      - [  0.70354321575192,  0.00000000000000 ]
      - [ -0.07090094194922,  0.00000000000000 ]
      - [  0.00000000000000,  0.00000000000000 ]
  - # 6
    frequency:    4.6809904789
    eigenvector:
    - # atom 1
      - [ -0.00000000000000,  0.00000000000000 ]
      - [  0.00000000000000,  0.00000000000000 ]
      - [  0.70710678118655,  0.00000000000000 ]
    - # atom 2
      - [ -0.00000000000000,  0.00000000000000 ]
      - [ -0.00000000000000,  0.00000000000000 ]
      - [ -0.70710678118655,  0.00000000000000 ]

- q-position: [    0.0066667,    0.0066667,    0.0000000 ]
  distance:    0.0041515
  band:
  - # 1
    frequency:    0.0773206893
    eigenvector:
    - # atom 1
      - [ -0.00000000000004,  0.00000000000000 ]
      - [  0.00000000000003, -0.00000000000000 ]
      - [ -0.69231657182005,  0.14386717618461 ]
    - # atom 2
      - [ -0.00000000000004,  0.00000000000000 ]
      - [  0.00000000000003,  0.00000000000000 ]
      - [ -0.69231657182005,  0.14386717618461 ]
  - # 2
    frequency:    0.0988551431
    eigenvector:
    - # atom 1
      - [  0.61227831600940,  0.00000000000000 ]
      - [ -0.35328167375722,  0.01753062269049 ]
      - [ -0.00000000000005,  0.00000000000001 ]
    - # atom 2
      - [  0.61209006216960, -0.01518196459201 ]
      - [ -0.35360773897286, -0.00876531134170 ]
      - [ -0.00000000000005,  0.00000000000001 ]
  - # 3
    frequency:    0.1784779918
    eigenvector:
    - # atom 1
      - [  0.35372060084376,  0.00000000000000 ]
      - [  0.61150385956345, -0.03073705056468 ]
      - [  0.00000000000001, -0.00000000000000 ]
    - # atom 2
      - [  0.35271757647363, -0.02661906662289 ]
      - [  0.61208295595418, -0.01536852528435 ]
      - [  0.00000000000001, -0.00000000000000 ]
  - # 4
    frequency:    2.0583160567
    eigenvector:
    - # atom 1
      - [ -0.61227586628846,  0.00000000000000 ]
      - [  0.35327460151566, -0.01775723753140 ]
      - [  0.00000000000000, -0.00000000000000 ]
    - # atom 2
      - [  0.61208271240570, -0.01537821879513 ]
      - [ -0.35360915385423, -0.00887861876575 ]
      - [  0.00000000000000, -0.00000000000000 ]
  - # 5
    frequency:    2.0630174072
    eigenvector:
    - # atom 1
      - [  0.35371636072445,  0.00000000000000 ]
      - [  0.61152587881343, -0.03034527471693 ]
      - [  0.00000000000000, -0.00000000000000 ]
    - # atom 2
      - [ -0.35273876604342,  0.02627977880373 ]
      - [ -0.61209029336484,  0.01517263735844 ]
      - [  0.00000000000000, -0.00000000000000 ]
  - # 6
    frequency:    4.6817251878
    eigenvector:
    - # atom 1
      - [ -0.00000000000000,  0.00000000000000 ]
      - [  0.00000000000000,  0.00000000000000 ]
      - [ -0.70683246378061,  0.01969436837855 ]
    - # atom 2
      - [  0.00000000000000,  0.00000000000000 ]
      - [ -0.00000000000000,  0.00000000000000 ]
      - [  0.70683246378061, -0.01969436837855 ]

- q-position: [    0.0133333,    0.0133333,    0.0000000 ]
  distance:    0.0083031
  band:
  - # 1
    frequency:    0.1545852973
    eigenvector:
    - # atom 1
      - [ -0.00000000000001,  0.00000000000000 ]
      - [  0.00000000000001, -0.00000000000000 ]
      - [ -0.70708871574034, -0.00505451013248 ]
    - # atom 2
      - [ -0.00000000000001,  0.00000000000000 ]
      - [  0.00000000000001,  0.00000000000000 ]
      - [ -0.70708871574034, -0.00505451013248 ]
  - # 2
    frequency:    0.1980759043
    eigenvector:
    - # atom 1
      - [  0.61201331591176,  0.00000000000000 ]
      - [ -0.35251645774957,  0.03423226785236 ]
      - [ -0.00000000000001, -0.00000000000000 ]
    - # atom 2
      - [  0.61129486561887, -0.02964601358814 ]
      - [ -0.35376085015997, -0.01711613392440 ]
      - [ -0.00000000000001, -0.00000000000000 ]
  - # 3
    frequency:    0.3564754051
    eigenvector:
    - # atom 1
      - [  0.35424119341137,  0.00000000000000 ]
      - [  0.60880313356474, -0.06222476558349 ]
      - [  0.00000000000000,  0.00000000000000 ]
    - # atom 2
      - [  0.35011838286613, -0.05388822773807 ]
      - [  0.61118343934349, -0.03111238279272 ]
      - [  0.00000000000000,  0.00000000000000 ]
  - # 4
    frequency:    2.0733995786
    eigenvector:
    - # atom 1
      - [ -0.61197481718282,  0.00000000000000 ]
      - [  0.35240526659862, -0.03601876188430 ]
      - [ -0.00000000000000,  0.00000000000000 ]
    - # atom 2
      - [  0.61117932185275, -0.03119316280065 ]
      - [ -0.35378310492745, -0.01800938094214 ]
      - [ -0.00000000000000,  0.00000000000000 ]
  - # 5
    frequency:    2.0918580429
    eigenvector:
    - # atom 1
      - [  0.35417467607274,  0.00000000000000 ]
      - [  0.60914791714489, -0.05915330816724 ]
      - [ -0.00000000000000,  0.00000000000000 ]
    - # atom 2
      - [ -0.35045023294307,  0.05122826759753 ]
      - [ -0.61129822538758,  0.02957665408362 ]
      - [ -0.00000000000000,  0.00000000000000 ]
  - # 6
    frequency:    4.6839134738
    eigenvector:
    - # atom 1
      - [ -0.00000000000000,  0.00000000000000 ]
      - [  0.00000000000000, -0.00000000000000 ]
      - [ -0.70594577858497,  0.04050379856340 ]
    - # atom 2
      - [  0.00000000000000,  0.00000000000000 ]
      - [ -0.00000000000000,  0.00000000000000 ]
      - [  0.70594577858497, -0.04050379856340 ]

- q-position: [    0.0200000,    0.0200000,    0.0000000 ]
  distance:    0.0124546
  band:
  - # 1
    frequency:    0.2317384915
    eigenvector:
    - # atom 1
      - [  0.00000000000001,  0.00000000000000 ]
      - [ -0.00000000000001,  0.00000000000000 ]
      - [ -0.70262467522083, -0.07948940665792 ]
    - # atom 2
      - [  0.00000000000001, -0.00000000000000 ]
      - [ -0.00000000000001, -0.00000000000000 ]
      - [ -0.70262467522083, -0.07948940665792 ]
  - # 2
    frequency:    0.2979516474
    eigenvector:
    - # atom 1
      - [  0.61162367461978,  0.00000000000000 ]
      - [ -0.35139084509765,  0.04940601811597 ]
      - [  0.00000000000001,  0.00000000000000 ]
    - # atom 2
      - [  0.61012523582153, -0.04278686678739 ]
      - [ -0.35398621722867, -0.02470300905679 ]
      - [  0.00000000000001,  0.00000000000000 ]
  - # 3
    frequency:    0.5334985956
    eigenvector:
    - # atom 1
      - [  0.35517377721748,  0.00000000000000 ]
      - [  0.60397826848410, -0.09519369294084 ]
      - [ -0.00000000000000, -0.00000000000000 ]
    - # atom 2
      - [  0.34547363523337, -0.08244015636565 ]
      - [  0.60957864807042, -0.04759684647102 ]
      - [ -0.00000000000000, -0.00000000000000 ]
  - # 4
    frequency:    2.0983990366
    eigenvector:
    - # atom 1
      - [ -0.61143404220441,  0.00000000000000 ]
      - [  0.35084281896990, -0.05529673056260 ]
      - [  0.00000000000000, -0.00000000000000 ]
    - # atom 2
      - [  0.60955581504767, -0.04788837341079 ]
      - [ -0.35409600383347, -0.02764836528126 ]
      - [  0.00000000000000, -0.00000000000000 ]
  - # 5
    frequency:    2.1386869234
    eigenvector:
    - # atom 1
      - [  0.35484712293500,  0.00000000000000 ]
      - [  0.60566634480540, -0.08515749007060 ]
      - [  0.00000000000000, -0.00000000000000 ]
    - # atom 2
      - [ -0.34709887938157,  0.07374854972798 ]
      - [ -0.61013979530595,  0.04257874503532 ]
      - [  0.00000000000000, -0.00000000000000 ]
  - # 6
    frequency:    4.6875080939
    eigenvector:
    - # atom 1
      - [ -0.00000000000000,  0.00000000000000 ]
      - [  0.00000000000000, -0.00000000000000 ]
      - [ -0.70209672786106,  0.08402490539596 ]
    - # atom 2
      - [  0.00000000000000, -0.00000000000000 ]
      - [  0.00000000000000,  0.00000000000000 ]
      - [  0.70209672786105, -0.08402490539596 ]

- q-position: [    0.0266667,    0.0266667,    0.0000000 ]
  distance:    0.0166061
  band:
  - # 1
    frequency:    0.3087264285
    eigenvector:
    - # atom 1
      - [ -0.00000000000000,  0.00000000000000 ]
      - [ -0.00000000000000, -0.00000000000000 ]
      - [ -0.70710579872985,  0.00117872924202 ]
    - # atom 2
      - [ -0.00000000000000,  0.00000000000000 ]
      - [ -0.00000000000000, -0.00000000000000 ]
      - [ -0.70710579872985,  0.00117872924202 ]
  - # 2
    frequency:    0.3986440240
    eigenvector:
    - # atom 1
      - [  0.61117018099564,  0.00000000000000 ]
      - [ -0.35008004935614,  0.06256971235724 ]
      - [ -0.00000000000000, -0.00000000000000 ]
    - # atom 2
      - [  0.60876330659817, -0.05418696040810 ]
      - [ -0.35424887810044, -0.03128485617771 ]
      - [ -0.00000000000000, -0.00000000000000 ]
  - # 3
    frequency:    0.7090275713
    eigenvector:
    - # atom 1
      - [  0.35662154952444,  0.00000000000000 ]
      - [  0.59652125476568, -0.13032061627879 ]
      - [ -0.00000000000000,  0.00000000000000 ]
    - # atom 2
      - [  0.33829178576336, -0.11286096433340 ]
      - [  0.60710394880793, -0.06516030813980 ]
      - [ -0.00000000000000,  0.00000000000000 ]
  - # 4
    frequency:    2.1331252177
    eigenvector:
    - # atom 1
      - [ -0.61059075526002,  0.00000000000000 ]
      - [  0.34840411907610, -0.07611504057599 ]
      - [  0.00000000000000,  0.00000000000000 ]
    - # atom 2
      - [  0.60702219552318, -0.06591755874694 ]
      - [ -0.35458504585010, -0.03805752028793 ]
      - [  0.00000000000000,  0.00000000000000 ]
  - # 5
    frequency:    2.2018442626
    eigenvector:
    - # atom 1
      - [  0.35562762809932,  0.00000000000000 ]
      - [  0.60163629095707, -0.10753029124936 ]
      - [  0.00000000000000,  0.00000000000000 ]
    - # atom 2
      - [ -0.34321849777443,  0.09312396390131 ]
      - [ -0.60880070568982,  0.05376514562471 ]
      - [  0.00000000000000,  0.00000000000000 ]
  - # 6
    frequency:    4.6924312329
    eigenvector:
    - # atom 1
      - [ -0.00000000000000,  0.00000000000000 ]
      - [  0.00000000000000,  0.00000000000000 ]
      - [ -0.70413006088655,  0.06481402129093 ]
    - # atom 2
      - [  0.00000000000000,  0.00000000000000 ]
      - [ -0.00000000000000, -0.00000000000000 ]
      - [  0.70413006088655, -0.06481402129093 ]

- q-position: [    0.0333333,    0.0333333,    0.0000000 ]
  distance:    0.0207576
  band:
  - # 1
    frequency:    0.3854974759
    eigenvector:
    - # atom 1
      - [ -0.00000000000000,  0.00000000000000 ]
      - [  0.00000000000000, -0.00000000000000 ]
      - [ -0.66455737099890,  0.24158538997843 ]
    - # atom 2
      - [ -0.00000000000000,  0.00000000000000 ]
      - [  0.00000000000000,  0.00000000000000 ]
      - [ -0.66455737099890,  0.24158538997843 ]
  - # 2
    frequency:    0.5001719324
    eigenvector:
    - # atom 1
      - [  0.61071238756996,  0.00000000000000 ]
      - [ -0.34875603399791,  0.07348202786089 ]
      - [ -0.00000000000000,  0.00000000000000 ]
    - # atom 2
      - [  0.60738777895011, -0.06363730284843 ]
      - [ -0.35451442504324, -0.03674101392971 ]
      - [ -0.00000000000000,  0.00000000000000 ]
  - # 3
    frequency:    0.8825026150
    eigenvector:
    - # atom 1
      - [  0.35873951019040,  0.00000000000000 ]
      - [  0.58568428244969, -0.16816624250866 ]
      - [  0.00000000000000, -0.00000000000000 ]
    - # atom 2
      - [  0.32784771210463, -0.14563623807078 ]
      - [  0.60351967039086, -0.08408312125460 ]
      - [  0.00000000000000, -0.00000000000000 ]
  - # 4
    frequency:    2.1773510004
    eigenvector:
    - # atom 1
      - [  0.60934880308804,  0.00000000000000 ]
      - [ -0.34480759057819,  0.09900384666726 ]
      - [ -0.00000000000000,  0.00000000000000 ]
    - # atom 2
      - [ -0.60328653439624,  0.08573984628470 ]
      - [  0.35530774796147,  0.04950192333354 ]
      - [ -0.00000000000000,  0.00000000000000 ]
  - # 5
    frequency:    2.2793331647
    eigenvector:
    - # atom 1
      - [ -0.35641321478324, -0.00000000000000 ]
      - [ -0.59759184387733,  0.12591111332779 ]
      - [ -0.00000000000000,  0.00000000000000 ]
    - # atom 2
      - [  0.33932311051084, -0.10904222276288 ]
      - [  0.60745882017881, -0.06295555666393 ]
      - [  0.00000000000000,  0.00000000000000 ]
  - # 6
    frequency:    4.6985758559
    eigenvector:
    - # atom 1
      - [ -0.00000000000000,  0.00000000000000 ]
      - [  0.00000000000000, -0.00000000000000 ]
      - [ -0.69587599152498,  0.12552531385788 ]
    - # atom 2
      - [ -0.00000000000000, -0.00000000000000 ]
      - [  0.00000000000000, -0.00000000000000 ]
      - [  0.69587599152498, -0.12552531385788 ]

- q-position: [    0.0400000,    0.0400000,    0.0000000 ]
  distance:    0.0249092
  band:
  - # 1
    frequency:    0.4620029081
    eigenvector:
    - # atom 1
      - [  0.00000000000000,  0.00000000000000 ]
      - [ -0.00000000000000,  0.00000000000000 ]
      - [ -0.66117483281281, -0.25069471565023 ]
    - # atom 2
      - [  0.00000000000000, -0.00000000000000 ]
      - [ -0.00000000000000,  0.00000000000000 ]
      - [ -0.66117483281281, -0.25069471565023 ]
  - # 2
    frequency:    0.6024282909
    eigenvector:
    - # atom 1
      - [  0.61029736263377,  0.00000000000000 ]
      - [ -0.34755502369723,  0.08211354739003 ]
      - [  0.00000000000000,  0.00000000000000 ]
    - # atom 2
      - [  0.60614016105145, -0.07111241803397 ]
      - [ -0.35475550805562, -0.04105677369439 ]
      - [  0.00000000000000,  0.00000000000000 ]
  - # 3
    frequency:    1.0533117440
    eigenvector:
    - # atom 1
      - [  0.36174146434515,  0.00000000000000 ]
      - [  0.57046798717387, -0.20906790423926 ]
      - [ -0.00000000000000, -0.00000000000000 ]
    - # atom 2
      - [  0.31316903676690, -0.18105811618660 ]
      - [  0.59851129131194, -0.10453395211980 ]
      - [ -0.00000000000000, -0.00000000000000 ]
  - # 4
    frequency:    2.2308422277
    eigenvector:
    - # atom 1
      - [  0.60757148795112,  0.00000000000000 ]
      - [ -0.33965044301168,  0.12447675924006 ]
      - [ -0.00000000000000,  0.00000000000000 ]
    - # atom 2
      - [ -0.59793165602613,  0.10780003568142 ]
      - [  0.35634712168214,  0.06223837961991 ]
      - [  0.00000000000000,  0.00000000000000 ]
  - # 5
    frequency:    2.3690232863
    eigenvector:
    - # atom 1
      - [ -0.35712340887228, -0.00000000000000 ]
      - [ -0.59394570354236,  0.14032594941515 ]
      - [ -0.00000000000000,  0.00000000000000 ]
    - # atom 2
      - [  0.33581036330706, -0.12152583700536 ]
      - [  0.60625079613610, -0.07016297470761 ]
      - [  0.00000000000000, -0.00000000000000 ]
  - # 6
    frequency:    4.7058075429
    eigenvector:
    - # atom 1
      - [ -0.00000000000000,  0.00000000000000 ]
      - [  0.00000000000000, -0.00000000000000 ]
      - [ -0.69356739120961,  0.13771083418055 ]
    - # atom 2
      - [  0.00000000000000, -0.00000000000000 ]
      - [ -0.00000000000000,  0.00000000000000 ]
      - [  0.69356739120960, -0.13771083418055 ]

- q-position: [    0.0466667,    0.0466667,    0.0000000 ]
  distance:    0.0290607
  band:
  - # 1
    frequency:    0.5381975661
    eigenvector:
    - # atom 1
      - [ -0.00000000000000,  0.00000000000000 ]
      - [  0.00000000000000, -0.00000000000000 ]
      - [ -0.67694812393364,  0.20430672407613 ]
    - # atom 2
      - [ -0.00000000000000, -0.00000000000000 ]
      - [  0.00000000000000,  0.00000000000000 ]
      - [ -0.67694812393364,  0.20430672407613 ]
  - # 2
    frequency:    0.7052147118
    eigenvector:
    - # atom 1
      - [  0.60995509137708,  0.00000000000000 ]
      - [ -0.34656405624990,  0.08858973653122 ]
      - [ -0.00000000000000,  0.00000000000000 ]
    - # atom 2
      - [  0.60511082243942, -0.07672096234997 ]
      - [ -0.35495457617600, -0.04429486826506 ]
      - [ -0.00000000000000,  0.00000000000000 ]
  - # 3
    frequency:    1.2207814637
    eigenvector:
    - # atom 1
      - [  0.36590135956159,  0.00000000000000 ]
      - [  0.54965400971973, -0.25297562070250 ]
      - [  0.00000000000000, -0.00000000000000 ]
    - # atom 2
      - [  0.29306365592959, -0.21908331406604 ]
      - [  0.59170687751938, -0.12648781035134 ]
      - [  0.00000000000000, -0.00000000000000 ]
  - # 4
    frequency:    2.2933876818
    eigenvector:
    - # atom 1
      - [  0.60507536313210,  0.00000000000000 ]
      - [ -0.33238694169432,  0.15297949510224 ]
      - [ -0.00000000000000, -0.00000000000000 ]
    - # atom 2
      - [ -0.59039321695657,  0.13248412901564 ]
      - [  0.35781716483443,  0.07648974755098 ]
      - [ -0.00000000000000,  0.00000000000000 ]
  - # 5
    frequency:    2.4688079551
    eigenvector:
    - # atom 1
      - [ -0.35770768303842, -0.00000000000000 ]
      - [ -0.59095322975308,  0.15106122513711 ]
      - [ -0.00000000000000,  0.00000000000000 ]
    - # atom 2
      - [  0.33292666790026, -0.13082285849681 ]
      - [  0.60526055551336, -0.07553061256860 ]
      - [  0.00000000000000, -0.00000000000000 ]
  - # 6
    frequency:    4.7139667489
    eigenvector:
    - # atom 1
      - [ -0.00000000000000,  0.00000000000000 ]
      - [  0.00000000000000, -0.00000000000000 ]
      - [ -0.69638794322270,  0.12265330217349 ]
    - # atom 2
      - [  0.00000000000000,  0.00000000000000 ]
      - [ -0.00000000000000,  0.00000000000000 ]
      - [  0.69638794322270, -0.12265330217349 ]

- q-position: [    0.0533333,    0.0533333,    0.0000000 ]
  distance:    0.0332122
  band:
  - # 1
    frequency:    0.6140404733
    eigenvector:
    - # atom 1
      - [  0.00000000000000,  0.00000000000000 ]
      - [ -0.00000000000000, -0.00000000000000 ]
      - [ -0.70673591579711,  0.02289858778226 ]
    - # atom 2
      - [  0.00000000000000,  0.00000000000000 ]
      - [ -0.00000000000000, -0.00000000000000 ]
      - [ -0.70673591579711,  0.02289858778226 ]
  - # 2
    frequency:    0.8082799654
    eigenvector:
    - # atom 1
      - [  0.60969928756788,  0.00000000000000 ]
      - [ -0.34582314346241,  0.09312965255416 ]
      - [  0.00000000000000, -0.00000000000000 ]
    - # atom 2
      - [  0.60434127123889, -0.08065264495690 ]
      - [ -0.35510349997258, -0.04656482627659 ]
      - [  0.00000000000000, -0.00000000000000 ]
  - # 3
    frequency:    1.3841757374
    eigenvector:
    - # atom 1
      - [  0.37153895375527,  0.00000000000000 ]
      - [  0.52193272902952, -0.29924075960687 ]
      - [ -0.00000000000000,  0.00000000000000 ]
    - # atom 2
      - [  0.26623752552958, -0.25915009966693 ]
      - [  0.58272853696221, -0.14962037980345 ]
      - [ -0.00000000000000,  0.00000000000000 ]
  - # 4
    frequency:    2.3648205376
    eigenvector:
    - # atom 1
      - [  0.60163012378154,  0.00000000000000 ]
      - [ -0.32232152681489,  0.18479726055977 ]
      - [ -0.00000000000000, -0.00000000000000 ]
    - # atom 2
      - [ -0.57995369229688,  0.16003912219369 ]
      - [  0.35986620747307,  0.09239863027972 ]
      - [ -0.00000000000000, -0.00000000000000 ]
  - # 5
    frequency:    2.5767046306
    eigenvector:
    - # atom 1
      - [ -0.35814351695970, -0.00000000000000 ]
      - [ -0.58872522943947,  0.15854281907858 ]
      - [ -0.00000000000000, -0.00000000000000 ]
    - # atom 2
      - [  0.33077924606708, -0.13730210891062 ]
      - [  0.60452399860505, -0.07927140953933 ]
      - [ -0.00000000000000, -0.00000000000000 ]
  - # 6
    frequency:    4.7228714237
    eigenvector:
    - # atom 1
      - [ -0.00000000000000,  0.00000000000000 ]
      - [  0.00000000000000, -0.00000000000000 ]
      - [ -0.66531369509088,  0.23949464946952 ]
    - # atom 2
      - [ -0.00000000000000, -0.00000000000000 ]
      - [  0.00000000000000, -0.00000000000000 ]
      - [  0.66531369509087, -0.23949464946952 ]

- q-position: [    0.0600000,    0.0600000,    0.0000000 ]
  distance:    0.0373638
  band:
  - # 1
    frequency:    0.6894953989
    eigenvector:
    - # atom 1
      - [ -0.00000000000000,  0.00000000000000 ]
      - [  0.00000000000000, -0.00000000000000 ]
      - [ -0.42971399430084,  0.56155666063365 ]
    - # atom 2
      - [ -0.00000000000000, -0.00000000000000 ]
      - [  0.00000000000000, -0.00000000000000 ]
      - [ -0.42971399430084,  0.56155666063365 ]
  - # 2
    frequency:    0.9113531037
    eigenvector:
    - # atom 1
      - [  0.60953109509077,  0.00000000000000 ]
      - [ -0.34533585281356,  0.09599475443391 ]
      - [ -0.00000000000000,  0.00000000000000 ]
    - # atom 2
      - [  0.60383516891943, -0.08313389596922 ]
      - [ -0.35520148633910, -0.04799737721651 ]
      - [ -0.00000000000000,  0.00000000000000 ]
  - # 3
    frequency:    1.5427112418
    eigenvector:
    - # atom 1
      - [  0.37897550149745,  0.00000000000000 ]
      - [  0.48618275858102, -0.34641578272824 ]
      - [  0.00000000000000, -0.00000000000000 ]
    - # atom 2
      - [  0.23155886906554, -0.30000486811423 ]
      - [  0.57129379099913, -0.17320789136407 ]
      - [  0.00000000000000, -0.00000000000000 ]
  - # 4
    frequency:    2.4450213036
    eigenvector:
    - # atom 1
      - [  0.59697367552017,  0.00000000000000 ]
      - [ -0.30864234439273,  0.21991437875629 ]
      - [ -0.00000000000000,  0.00000000000000 ]
    - # atom 2
      - [ -0.56577894868616,  0.19045143865972 ]
      - [  0.36267319619743,  0.10995718937796 ]
      - [  0.00000000000000,  0.00000000000000 ]
  - # 5
    frequency:    2.6909061958
    eigenvector:
    - # atom 1
      - [ -0.35842969201524, -0.00000000000000 ]
      - [ -0.58726423962455,  0.16324481229194 ]
      - [ -0.00000000000000,  0.00000000000000 ]
    - # atom 2
      - [  0.32937090424403, -0.14137415448158 ]
      - [  0.60404133856621, -0.08162240614600 ]
      - [  0.00000000000000, -0.00000000000000 ]
  - # 6
    frequency:    4.7323199184
    eigenvector:
    - # atom 1
      - [ -0.00000000000000,  0.00000000000000 ]
      - [  0.00000000000000, -0.00000000000000 ]
      - [ -0.63451833293718,  0.31206807777570 ]
    - # atom 2
      - [  0.00000000000000, -0.00000000000000 ]
      - [ -0.00000000000000,  0.00000000000000 ]
      - [  0.63451833293718, -0.31206807777570 ]

- q-position: [    0.0666667,    0.0666667,    0.0000000 ]
  distance:    0.0415153
  band:
  - # 1
    frequency:    0.7645313587
    eigenvector:
    - # atom 1
      - [  0.00000000000000,  0.00000000000000 ]
      - [ -0.00000000000000,  0.00000000000000 ]
      - [ -0.68408954108563, -0.17894552181391 ]
    - # atom 2
      - [  0.00000000000000,  0.00000000000000 ]
      - [ -0.00000000000000, -0.00000000000000 ]
      - [ -0.68408954108563, -0.17894552181391 ]
  - # 2
    frequency:    1.0141676397
    eigenvector:
    - # atom 1
      - [  0.60944349442184,  0.00000000000000 ]
      - [ -0.34508201154224,  0.09745271887794 ]
      - [  0.00000000000000,  0.00000000000000 ]
    - # atom 2
      - [  0.60357153559549, -0.08439653021557 ]
      - [ -0.35525254257007, -0.04872635943856 ]
      - [  0.00000000000000,  0.00000000000000 ]
  - # 3
    frequency:    1.6955991622
    eigenvector:
    - # atom 1
      - [  0.38844730757004,  0.00000000000000 ]
      - [  0.44191652739788, -0.39219698118949 ]
      - [ -0.00000000000000, -0.00000000000000 ]
    - # atom 2
      - [  0.18848728529485, -0.33965254899744 ]
      - [  0.55736350008613, -0.19609849059464 ]
      - [ -0.00000000000000, -0.00000000000000 ]
  - # 4
    frequency:    2.5338909181
    eigenvector:
    - # atom 1
      - [  0.59085420303248,  0.00000000000000 ]
      - [ -0.29053070005742,  0.25784340806594 ]
      - [ -0.00000000000000,  0.00000000000000 ]
    - # atom 2
      - [ -0.54703406834403,  0.22329894158289 ]
      - [  0.36642939973229,  0.12892170403276 ]
      - [ -0.00000000000000, -0.00000000000000 ]
  - # 5
    frequency:    2.8097973286
    eigenvector:
    - # atom 1
      - [ -0.35857862053857, -0.00000000000000 ]
      - [ -0.58650453465696,  0.16563152996825 ]
      - [ -0.00000000000000,  0.00000000000000 ]
    - # atom 2
      - [  0.32863851618041, -0.14344111262073 ]
      - [  0.60379046196741, -0.08281576498415 ]
      - [ -0.00000000000000, -0.00000000000000 ]
  - # 6
    frequency:    4.7420941047
    eigenvector:
    - # atom 1
      - [ -0.00000000000000,  0.00000000000000 ]
      - [  0.00000000000000, -0.00000000000000 ]
      - [ -0.61710953536013,  0.34521851249261 ]
    - # atom 2
      - [  0.00000000000000,  0.00000000000000 ]
      - [ -0.00000000000000,  0.00000000000000 ]
      - [  0.61710953536013, -0.34521851249261 ]

- q-position: [    0.0733333,    0.0733333,    0.0000000 ]
  distance:    0.0456668
  band:
  - # 1
    frequency:    0.8391230481
    eigenvector:
    - # atom 1
      - [  0.00000000000000,  0.00000000000000 ]
      - [ -0.00000000000000,  0.00000000000000 ]
      - [ -0.70628722502958, -0.03403462589798 ]
    - # atom 2
      - [  0.00000000000000,  0.00000000000000 ]
      - [ -0.00000000000000, -0.00000000000000 ]
      - [ -0.70628722502958, -0.03403462589798 ]
  - # 2
    frequency:    1.1164769054
    eigenvector:
    - # atom 1
      - [  0.60942514323409,  0.00000000000000 ]
      - [ -0.34502883141622,  0.09775530822157 ]
      - [  0.00000000000000,  0.00000000000000 ]
    - # atom 2
      - [  0.60351630466153, -0.08465858027409 ]
      - [ -0.35526324003829, -0.04887765411040 ]
      - [  0.00000000000000,  0.00000000000000 ]
  - # 3
    frequency:    1.8421209644
    eigenvector:
    - # atom 1
      - [  0.39998404718060,  0.00000000000000 ]
      - [  0.38978223810362, -0.43368487275898 ]
      - [ -0.00000000000000,  0.00000000000000 ]
    - # atom 2
      - [  0.13756929655247, -0.37558211704615 ]
      - [  0.54128746501858, -0.21684243637935 ]
      - [ -0.00000000000000,  0.00000000000000 ]
  - # 4
    frequency:    2.6312862136
    eigenvector:
    - # atom 1
      - [  0.58310613270723,  0.00000000000000 ]
      - [ -0.26737272748673,  0.29748792008346 ]
      - [ -0.00000000000000, -0.00000000000000 ]
    - # atom 2
      - [ -0.52310464063536,  0.25763209611081 ]
      - [  0.37129836028512,  0.14874396004150 ]
      - [ -0.00000000000000, -0.00000000000000 ]
  - # 5
    frequency:    2.9319497426
    eigenvector:
    - # atom 1
      - [ -0.35860980855848, -0.00000000000000 ]
      - [ -0.58634549303411,  0.16612636155753 ]
      - [ -0.00000000000000,  0.00000000000000 ]
    - # atom 2
      - [  0.32848518808433, -0.14386964934748 ]
      - [  0.60373795077388, -0.08306318077877 ]
      - [ -0.00000000000000, -0.00000000000000 ]
  - # 6
    frequency:    4.7519626289
    eigenvector:
    - # atom 1
      - [ -0.00000000000000,  0.00000000000000 ]
      - [ -0.00000000000000, -0.00000000000000 ]
      - [ -0.69008293360338,  0.15422562935308 ]
    - # atom 2
      - [ -0.00000000000000, -0.00000000000000 ]
      - [  0.00000000000000, -0.00000000000000 ]
      - [  0.69008293360338, -0.15422562935308 ]

- q-position: [    0.0800000,    0.0800000,    0.0000000 ]
  distance:    0.0498183
  band:
  - # 1
    frequency:    0.9132511970
    eigenvector:
    - # atom 1
      - [  0.00000000000000,  0.00000000000000 ]
      - [ -0.00000000000000,  0.00000000000000 ]
      - [ -0.70701514931765, -0.01138326119078 ]
    - # atom 2
      - [  0.00000000000000, -0.00000000000000 ]
      - [ -0.00000000000000,  0.00000000000000 ]
      - [ -0.70701514931765, -0.01138326119078 ]
  - # 2
    frequency:    1.2180624069
    eigenvector:
    - # atom 1
      - [  0.60946318389570,  0.00000000000000 ]
      - [ -0.34513906847074,  0.09712698332944 ]