nqpoint: 204    
npath: 4      
segment_nqpoint:
- 51
- 51
- 51
- 51
labels:
- [ '$\Gamma$', 'K' ]
- [ 'K', 'M' ]
- [ 'M', '$\Gamma$' ]
- [ '$\Gamma$', 'A' ]
reciprocal_lattice:
- [   0.31136464,   0.17976646,   0.00000000 ] # a*
- [   0.00000000,   0.35953292,   0.00000000 ] # b*
- [   0.00000000,   0.00000000,   0.19221740 ] # c*
natom: 2      
lattice:
- [     3.211668444827870,     0.000000000000000,     0.000000000000000 ] # a
- [    -1.605834222413930,     2.781386461750960,     0.000000000000000 ] # b
- [     0.000000000000000,     0.000000000000000,     5.202442629952290 ] # c
points:
- symbol: Zr # 1
  coordinates: [  0.000000000000000,  0.000000000000000,  0.000000000000000 ]
  mass: 91.224000
- symbol: Zr # 2
  coordinates: [  0.666666666666660,  0.333333333333340,  0.500000000000000 ]
  mass: 91.224000

phonon:
- q-position: [    0.0000000,    0.0000000,    0.0000000 ]
  distance:    0.0000000
  band:
  - # 1
    frequency:   -0.0000000623
  - # 2
    frequency:   -0.0000000227
  - # 3
    frequency:    0.0000000472
  - # 4
    frequency:    2.0532736370
  - # 5
    frequency:    2.0532736370
  - # 6
    frequency:    4.6809904802

- q-position: [    0.0066667,    0.0066667,    0.0000000 ]
  distance:    0.0041515
  band:
  - # 1
    frequency:    0.0773206889
  - # 2
    frequency:    0.0988551364
  - # 3
    frequency:    0.1784779922
  - # 4
    frequency:    2.0583160605
  - # 5
    frequency:    2.0630174103
  - # 6
    frequency:    4.6817251891

- q-position: [    0.0133333,    0.0133333,    0.0000000 ]
  distance:    0.0083031
  band:
  - # 1
    frequency:    0.1545852964
  - # 2
    frequency:    0.1980758913
  - # 3
    frequency:    0.3564754058
  - # 4
    frequency:    2.0733995841
  - # 5
    frequency:    2.0918580455
  - # 6
    frequency:    4.6839134750

- q-position: [    0.0200000,    0.0200000,    0.0000000 ]
  distance:    0.0124546
  band:
  - # 1
    frequency:    0.2317384903
  - # 2
    frequency:    0.2979516290
  - # 3
    frequency:    0.5334985962
  - # 4
    frequency:    2.0983990449
  - # 5
    frequency:    2.1386869253
  - # 6
    frequency:    4.6875080952

- q-position: [    0.0266667,    0.0266667,    0.0000000 ]
  distance:    0.0166061
  band:
  - # 1
    frequency:    0.3087264268
  - # 2
    frequency:    0.3986440012
  - # 3
    frequency:    0.7090275712
  - # 4
    frequency:    2.1331252300
  - # 5
    frequency:    2.2018442634
  - # 6
    frequency:    4.6924312341

- q-position: [    0.0333333,    0.0333333,    0.0000000 ]
  distance:    0.0207576
  band:
  - # 1
    frequency:    0.3854974739
  - # 2
    frequency:    0.5001719062
  - # 3
    frequency:    0.8825026138
  - # 4
    frequency:    2.1773510178
  - # 5
    frequency:    2.2793331638
  - # 6
    frequency:    4.6985758570

- q-position: [    0.0400000,    0.0400000,    0.0000000 ]
  distance:    0.0249092
  band:
  - # 1
    frequency:    0.4620029057
  - # 2
    frequency:    0.6024282626
  - # 3
    frequency:    1.0533117408
  - # 4
    frequency:    2.2308422512
  - # 5
    frequency:    2.3690232832
  - # 6
    frequency:    4.7058075440

- q-position: [    0.0466667,    0.0466667,    0.0000000 ]
  distance:    0.0290607
  band:
  - # 1
    frequency:    0.5381975634
  - # 2
    frequency:    0.7052146825
  - # 3
    frequency:    1.2207814575
  - # 4
    frequency:    2.2933877124
  - # 5
    frequency:    2.4688079492
  - # 6
    frequency:    4.7139667499

- q-position: [    0.0533333,    0.0533333,    0.0000000 ]
  distance:    0.0332122
  band:
  - # 1
    frequency:    0.6140404704
  - # 2
    frequency:    0.8082799360
  - # 3
    frequency:    1.3841757271
  - # 4
    frequency:    2.3648205764
  - # 5
    frequency:    2.5767046214
  - # 6
    frequency:    4.7228714246

- q-position: [    0.0600000,    0.0600000,    0.0000000 ]
  distance:    0.0373638
  band:
  - # 1
    frequency:    0.6894953956
  - # 2
    frequency:    0.9113530750
  - # 3
    frequency:    1.5427112264
  - # 4
    frequency:    2.4450213513
  - # 5
    frequency:    2.6909061829
  - # 6
    frequency:    4.7323199193

- q-position: [    0.0666667,    0.0666667,    0.0000000 ]
  distance:    0.0415153
  band:
  - # 1
    frequency:    0.7645313552
  - # 2
    frequency:    1.0141676124
  - # 3
    frequency:    1.6955991406
  - # 4
    frequency:    2.5338909755
  - # 5
    frequency:    2.8097973116
  - # 6
    frequency:    4.7420941055

- q-position: [    0.0733333,    0.0733333,    0.0000000 ]
  distance:    0.0456668
  band:
  - # 1
    frequency:    0.8391230445
  - # 2
    frequency:    1.1164768800
  - # 3
    frequency:    1.8421209359
  - # 4
    frequency:    2.6312862807
  - # 5
    frequency:    2.9319497212
  - # 6
    frequency:    4.7519626296

- q-position: [    0.0800000,    0.0800000,    0.0000000 ]
  distance:    0.0498183
  band:
  - # 1
    frequency:    0.9132511931
  - # 2
    frequency:    1.2180623839
  - # 3
    frequency:    1.9817325395
  - # 4
    frequency:    2.7369235651
  - # 5
    frequency:    3.0561066333
  - # 6
    frequency:    4.7616842318

- q-position: [    0.0866667,    0.0866667,    0.0000000 ]
  distance:    0.0539699
  band:
  - # 1
    frequency:    0.9869028359
  - # 2
    frequency:    1.3187373091
  - # 3
    frequency:    2.1141686240
  - # 4
    frequency:    2.8502790583
  - # 5
    frequency:    3.1811631522
  - # 6
    frequency:    4.7710110628

- q-position: [    0.0933333,    0.0933333,    0.0000000 ]
  distance:    0.0581214
  band:
  - # 1
    frequency:    1.0600714914
  - # 2
    frequency:    1.4183470087
  - # 3
    frequency:    2.2395011596
  - # 4
    frequency:    2.9705327274
  - # 5
    frequency:    3.3061463272
  - # 6
    frequency:    4.7796919393

- q-position: [    0.1000000,    0.1000000,    0.0000000 ]
  distance:    0.0622729
  band:
  - # 1
    frequency:    1.1327572449
  - # 2
    frequency:    1.5167678111
  - # 3
    frequency:    2.3581169757
  - # 4
    frequency:    3.0965912954
  - # 5
    frequency:    3.4301967799
  - # 6
    frequency:    4.7874754881

- q-position: [    0.1066667,    0.1066667,    0.0000000 ]
  distance:    0.0664245
  band:
  - # 1
    frequency:    1.2049667277
  - # 2
    frequency:    1.6139050138
  - # 3
    frequency:    2.4706197186
  - # 4
    frequency:    3.2271856409
  - # 5
    frequency:    3.5525526365
  - # 6
    frequency:    4.7941131372

- q-position: [    0.1133333,    0.1133333,    0.0000000 ]
  distance:    0.0705760
  band:
  - # 1
    frequency:    1.2767129920
  - # 2
    frequency:    1.7096905822
  - # 3
    frequency:    2.5777001472
  - # 4
    frequency:    3.3609990877
  - # 5
    frequency:    3.6725358974
  - # 6
    frequency:    4.7993619223

- q-position: [    0.1200000,    0.1200000,    0.0000000 ]
  distance:    0.0747275
  band:
  - # 1
    frequency:    1.3480152762
  - # 2
    frequency:    1.8040808266
  - # 3
    frequency:    2.6800238142
  - # 4
    frequency:    3.4967778914
  - # 5
    frequency:    3.7895410790
  - # 6
    frequency:    4.8029870837

- q-position: [    0.1266667,    0.1266667,    0.0000000 ]
  distance:    0.0788790
  band:
  - # 1
    frequency:    1.4188986618
  - # 2
    frequency:    1.8970541840
  - # 3
    frequency:    2.7781615664
  - # 4
    frequency:    3.6333987460
  - # 5
    frequency:    3.9030258490
  - # 6
    frequency:    4.8047644394

- q-position: [    0.1333333,    0.1333333,    0.0000000 ]
  distance:    0.0830306
  band:
  - # 1
    frequency:    1.4893936210
  - # 2
    frequency:    1.9886091408
  - # 3
    frequency:    2.8725622070
  - # 4
    frequency:    3.7698941467
  - # 5
    frequency:    4.0125033478
  - # 6
    frequency:    4.8044825232

- q-position: [    0.1400000,    0.1400000,    0.0000000 ]
  distance:    0.0871821
  band:
  - # 1
    frequency:    1.5595354588
  - # 2
    frequency:    2.0787622863
  - # 3
    frequency:    2.9635538668
  - # 4
    frequency:    3.9054491819
  - # 5
    frequency:    4.1175359082
  - # 6
    frequency:    4.8019444858

- q-position: [    0.1466667,    0.1466667,    0.0000000 ]
  distance:    0.0913336
  band:
  - # 1
    frequency:    1.6293636540
  - # 2
    frequency:    2.1675464656
  - # 3
    frequency:    3.0513599282
  - # 4
    frequency:    4.0393839794
  - # 5
    frequency:    4.2177299205
  - # 6
    frequency:    4.7969697596

- q-position: [    0.1533333,    0.1533333,    0.0000000 ]
  distance:    0.0954852
  band:
  - # 1
    frequency:    1.6989211048
  - # 2
    frequency:    2.2550089939
  - # 3
    frequency:    3.1361196910
  - # 4
    frequency:    4.1711316575
  - # 5
    frequency:    4.3127316295
  - # 6
    frequency:    4.7893954916

- q-position: [    0.1600000,    0.1600000,    0.0000000 ]
  distance:    0.0996367
  band:
  - # 1
    frequency:    1.7682532893
  - # 2
    frequency:    2.3412098957
  - # 3
    frequency:    3.2179085024
  - # 4
    frequency:    4.3002170711
  - # 5
    frequency:    4.4022236859
  - # 6
    frequency:    4.7790777528

- q-position: [    0.1666667,    0.1666667,    0.0000000 ]
  distance:    0.1037882
  band:
  - # 1
    frequency:    1.8374073507
  - # 2
    frequency:    2.4262201376
  - # 3
    frequency:    3.2967551614
  - # 4
    frequency:    4.4262385425
  - # 5
    frequency:    4.4859223075
  - # 6
    frequency:    4.7658925326

- q-position: [    0.1733333,    0.1733333,    0.0000000 ]
  distance:    0.1079397
  band:
  - # 1
    frequency:    1.9064311202
  - # 2
    frequency:    2.5101198323
  - # 3
    frequency:    3.3726560871
  - # 4
    frequency:    4.5488530744
  - # 5
    frequency:    4.5635749348
  - # 6
    frequency:    4.7497365296

- q-position: [    0.1800000,    0.1800000,    0.0000000 ]
  distance:    0.1120913
  band:
  - # 1
    frequency:    1.9753720926
  - # 2
    frequency:    2.5929963987
  - # 3
    frequency:    3.4455864978
  - # 4
    frequency:    4.6349582861
  - # 5
    frequency:    4.6677647810
  - # 6
    frequency:    4.7305277487

- q-position: [    0.1866667,    0.1866667,    0.0000000 ]
  distance:    0.1162428
  band:
  - # 1
    frequency:    2.0442763699
  - # 2
    frequency:    2.6749426706
  - # 3
    frequency:    3.5155091007
  - # 4
    frequency:    4.6998767373
  - # 5
    frequency:    4.7082059183
  - # 6
    frequency:    4.7827160158

- q-position: [    0.1933333,    0.1933333,    0.0000000 ]
  distance:    0.1203943
  band:
  - # 1
    frequency:    2.1131875906
  - # 2
    frequency:    2.7560549550
  - # 3
    frequency:    3.5823808168
  - # 4
    frequency:    4.6827327356
  - # 5
    frequency:    4.7581609673
  - # 6
    frequency:    4.8934806469

- q-position: [    0.2000000,    0.2000000,    0.0000000 ]
  distance:    0.1245459
  band:
  - # 1
    frequency:    2.1821458626
  - # 2
    frequency:    2.8364310456
  - # 3
    frequency:    3.6461579986
  - # 4
    frequency:    4.6540919534
  - # 5
    frequency:    4.8096668223
  - # 6
    frequency:    4.9998590014

- q-position: [    0.2066667,    0.2066667,    0.0000000 ]
  distance:    0.1286974
  band:
  - # 1
    frequency:    2.2511867176
  - # 2
    frequency:    2.9161682048
  - # 3
    frequency:    3.7068005056
  - # 4
    frequency:    4.6222893179
  - # 5
    frequency:    4.8542743632
  - # 6
    frequency:    5.1016740866

- q-position: [    0.2133333,    0.2133333,    0.0000000 ]
  distance:    0.1328489
  band:
  - # 1
    frequency:    2.3203401053
  - # 2
    frequency:    2.9953611274
  - # 3
    frequency:    3.7642749197
  - # 4
    frequency:    4.5873523658
  - # 5
    frequency:    4.8918870693
  - # 6
    frequency:    5.1987687860

- q-position: [    0.2200000,    0.2200000,    0.0000000 ]
  distance:    0.1370004
  band:
  - # 1
    frequency:    2.3896294446
  - # 2
    frequency:    3.0740999041
  - # 3
    frequency:    3.8185571103
  - # 4
    frequency:    4.5493300914
  - # 5
    frequency:    4.9224311819
  - # 6
    frequency:    5.2910037957

- q-position: [    0.2266667,    0.2266667,    0.0000000 ]
  distance:    0.1411520
  band:
  - # 1
    frequency:    2.4590707482
  - # 2
    frequency:    3.1524680011
  - # 3
    frequency:    3.8696343016
  - # 4
    frequency:    4.5082924900
  - # 5
    frequency:    4.9458551791
  - # 6
    frequency:    5.3782561280

- q-position: [    0.2333333,    0.2333333,    0.0000000 ]
  distance:    0.1453035
  band:
  - # 1
    frequency:    2.5286718356
  - # 2
    frequency:    3.2305402669
  - # 3
    frequency:    3.9175067560
  - # 4
    frequency:    4.4643299857
  - # 5
    frequency:    4.9621293830
  - # 6
    frequency:    5.4604180468

- q-position: [    0.2400000,    0.2400000,    0.0000000 ]
  distance:    0.1494550
  band:
  - # 1
    frequency:    2.5984316466
  - # 2
    frequency:    3.3083809706
  - # 3
    frequency:    3.9621891489
  - # 4
    frequency:    4.4175527497
  - # 5
    frequency:    4.9712457152
  - # 6
    frequency:    5.5373963383

- q-position: [    0.2466667,    0.2466667,    0.0000000 ]
  distance:    0.1536066
  band:
  - # 1
    frequency:    2.6683396662
  - # 2
    frequency:    3.3860418573
  - # 3
    frequency:    4.0037116932
  - # 4
    frequency:    4.3680899147
  - # 5
    frequency:    4.9732176334
  - # 6
    frequency:    5.6091118382

- q-position: [    0.2533333,    0.2533333,    0.0000000 ]
  distance:    0.1577581
  band:
  - # 1
    frequency:    2.7383754695
  - # 2
    frequency:    3.4635601792
  - # 3
    frequency:    4.0421210492
  - # 4
    frequency:    4.3160886904
  - # 5
    frequency:    4.9680803148
  - # 6
    frequency:    5.6754991601

- q-position: [    0.2600000,    0.2600000,    0.0000000 ]
  distance:    0.1619096
  band:
  - # 1
    frequency:    2.8085083915
  - # 2
    frequency:    3.5409566056
  - # 3
    frequency:    4.0774810437
  - # 4
    frequency:    4.2617133850
  - # 5
    frequency:    4.9558912016
  - # 6
    frequency:    5.7365065778

- q-position: [    0.2666667,    0.2666667,    0.0000000 ]
  distance:    0.1660611
  band:
  - # 1
    frequency:    2.8786973257
  - # 2
    frequency:    3.6182328215
  - # 3
    frequency:    4.1098732117
  - # 4
    frequency:    4.2051443356
  - # 5
    frequency:    4.9367311209
  - # 6
    frequency:    5.7920960295

- q-position: [    0.2733333,    0.2733333,    0.0000000 ]
  distance:    0.1702127
  band:
  - # 1
    frequency:    2.9488906507
  - # 2
    frequency:    3.6953684307
  - # 3
    frequency:    4.1393971664
  - # 4
    frequency:    4.1465767518
  - # 5
    frequency:    4.9107063803
  - # 6
    frequency:    5.8422432150

- q-position: [    0.2800000,    0.2800000,    0.0000000 ]
  distance:    0.1743642
  band:
  - # 1
    frequency:    3.0190262852
  - # 2
    frequency:    3.7723163869
  - # 3
    frequency:    4.0862194754
  - # 4
    frequency:    4.1661707955
  - # 5
    frequency:    4.8779526305
  - # 6
    frequency:    5.8869377642

- q-position: [    0.2866667,    0.2866667,    0.0000000 ]
  distance:    0.1785157
  band:
  - # 1
    frequency:    3.0890318649
  - # 2
    frequency:    3.8489952939
  - # 3
    frequency:    4.0242936585
  - # 4
    frequency:    4.1903302787
  - # 5
    frequency:    4.8386421676
  - # 6
    frequency:    5.9261834601

- q-position: [    0.2933333,    0.2933333,    0.0000000 ]
  distance:    0.1826673
  band:
  - # 1
    frequency:    3.1588250378
  - # 2
    frequency:    3.9252747631
  - # 3
    frequency:    3.9610313638
  - # 4
    frequency:    4.2120299151
  - # 5
    frequency:    4.7929984963
  - # 6
    frequency:    5.9599985023

- q-position: [    0.3000000,    0.3000000,    0.0000000 ]
  distance:    0.1868188
  band:
  - # 1
    frequency:    3.2283138692
  - # 2
    frequency:    3.8966740893
  - # 3
    frequency:    4.0009442002
  - # 4
    frequency:    4.2314417463
  - # 5
    frequency:    4.7413277906
  - # 6
    frequency:    5.9884157983

- q-position: [    0.3066667,    0.3066667,    0.0000000 ]
  distance:    0.1909703
  band:
  - # 1
    frequency:    3.2973973478
  - # 2
    frequency:    3.8314712216
  - # 3
    frequency:    4.0756374591
  - # 4
    frequency:    4.2487549594
  - # 5
    frequency:    4.6840948202
  - # 6
    frequency:    6.0114832763

- q-position: [    0.3133333,    0.3133333,    0.0000000 ]
  distance:    0.1951218
  band:
  - # 1
    frequency:    3.3659659844
  - # 2
    frequency:    3.7656784211
  - # 3
    frequency:    4.1486204361
  - # 4
    frequency:    4.2641750491
  - # 5
    frequency:    4.6221362772
  - # 6
    frequency:    6.0292642091

- q-position: [    0.3200000,    0.3200000,    0.0000000 ]
  distance:    0.1992734
  band:
  - # 1
    frequency:    3.4339024912
  - # 2
    frequency:    3.6995559451
  - # 3
    frequency:    4.2180519243
  - # 4
    frequency:    4.2779227193
  - # 5
    frequency:    4.5574011901
  - # 6
    frequency:    6.0418375468

- q-position: [    0.3266667,    0.3266667,    0.0000000 ]
  distance:    0.2034249
  band:
  - # 1
    frequency:    3.5010825331
  - # 2
    frequency:    3.6333669152
  - # 3
    frequency:    4.2776057125
  - # 4
    frequency:    4.2902325019
  - # 5
    frequency:    4.4963304492
  - # 6
    frequency:    6.0492982534

- q-position: [    0.3333333,    0.3333333,    0.0000000 ]
  distance:    0.2075764
  band:
  - # 1
    frequency:    3.5673755379
  - # 2
    frequency:    3.5673755379
  - # 3
    frequency:    4.3013510709
  - # 4
    frequency:    4.3013510709
  - # 5
    frequency:    4.4649783164
  - # 6
    frequency:    6.0517576468

- q-position: [    0.3333333,    0.3333333,    0.0000000 ]
  distance:    0.2075764
  band:
  - # 1
    frequency:    3.5673755379
  - # 2
    frequency:    3.5673755379
  - # 3
    frequency:    4.3013510709
  - # 4
    frequency:    4.3013510709
  - # 5
    frequency:    4.4649783164
  - # 6
    frequency:    6.0517576468

- q-position: [    0.3366667,    0.3266667,    0.0000000 ]
  distance:    0.2096522
  band:
  - # 1
    frequency:    3.5345363835
  - # 2
    frequency:    3.6001471029
  - # 3
    frequency:    4.2867443828
  - # 4
    frequency:    4.3065435680
  - # 5
    frequency:    4.4735395370
  - # 6
    frequency:    6.0511511944

- q-position: [    0.3400000,    0.3200000,    0.0000000 ]
  distance:    0.2117280
  band:
  - # 1
    frequency:    3.5018452881
  - # 2
    frequency:    3.6326455566
  - # 3
    frequency:    4.2579695436
  - # 4
    frequency:    4.3115352308
  - # 5
    frequency:    4.4947980166
  - # 6
    frequency:    6.0493437436

- q-position: [    0.3433333,    0.3133333,    0.0000000 ]
  distance:    0.2138037
  band:
  - # 1
    frequency:    3.4693347700
  - # 2
    frequency:    3.6648532128
  - # 3
    frequency:    4.2212330132
  - # 4
    frequency:    4.3163593563
  - # 5
    frequency:    4.5225663561
  - # 6
    frequency:    6.0463539635

- q-position: [    0.3466667,    0.3066667,    0.0000000 ]
  distance:    0.2158795
  band:
  - # 1
    frequency:    3.4370370722
  - # 2
    frequency:    3.6967521634
  - # 3
    frequency:    4.1799904123
  - # 4
    frequency:    4.3210495601
  - # 5
    frequency:    4.5534090718
  - # 6
    frequency:    6.0422016120

- q-position: [    0.3500000,    0.3000000,    0.0000000 ]
  distance:    0.2179553
  band:
  - # 1
    frequency:    3.4049841042
  - # 2
    frequency:    3.7283243078
  - # 3
    frequency:    4.1358636569
  - # 4
    frequency:    4.3256396829
  - # 5
    frequency:    4.5857255736
  - # 6
    frequency:    6.0369075475

- q-position: [    0.3533333,    0.2933333,    0.0000000 ]
  distance:    0.2200310
  band:
  - # 1
    frequency:    3.3732073855
  - # 2
    frequency:    3.7595513830
  - # 3
    frequency:    4.0896523729
  - # 4
    frequency:    4.3301636908
  - # 5
    frequency:    4.6187388704
  - # 6
    frequency:    6.0304937422

- q-position: [    0.3566667,    0.2866667,    0.0000000 ]
  distance:    0.2221068
  band:
  - # 1
    frequency:    3.3417379890
  - # 2
    frequency:    3.7904149930
  - # 3
    frequency:    4.0417934934
  - # 4
    frequency:    4.3346555693
  - # 5
    frequency:    4.6520361025
  - # 6
    frequency:    6.0229832950

- q-position: [    0.3600000,    0.2800000,    0.0000000 ]
  distance:    0.2241825
  band:
  - # 1
    frequency:    3.3106064860
  - # 2
    frequency:    3.8208966392
  - # 3
    frequency:    3.9925534180
  - # 4
    frequency:    4.3391492113
  - # 5
    frequency:    4.6853765197
  - # 6
    frequency:    6.0144004461

- q-position: [    0.3633333,    0.2733333,    0.0000000 ]
  distance:    0.2262583
  band:
  - # 1
    frequency:    3.2798428914
  - # 2
    frequency:    3.8509777504
  - # 3
    frequency:    3.9421124988
  - # 4
    frequency:    4.3436782986
  - # 5
    frequency:    4.7186071430
  - # 6
    frequency:    6.0047705929

- q-position: [    0.3666667,    0.2666667,    0.0000000 ]
  distance:    0.2283341
  band:
  - # 1
    frequency:    3.2494766109
  - # 2
    frequency:    3.8806397129
  - # 3
    frequency:    3.8906050337
  - # 4
    frequency:    4.3482761776
  - # 5
    frequency:    4.7516229289
  - # 6
    frequency:    5.9941203067

- q-position: [    0.3700000,    0.2600000,    0.0000000 ]
  distance:    0.2304098
  band:
  - # 1
    frequency:    3.2195363897
  - # 2
    frequency:    3.8381396075
  - # 3
    frequency:    3.9098639002
  - # 4
    frequency:    4.3529757276
  - # 5
    frequency:    4.7843465956
  - # 6
    frequency:    5.9824773516

- q-position: [    0.3733333,    0.2533333,    0.0000000 ]
  distance:    0.2324856
  band:
  - # 1
    frequency:    3.1900502630
  - # 2
    frequency:    3.7848101308
  - # 3
    frequency:    3.9386317030
  - # 4
    frequency:    4.3578092235
  - # 5
    frequency:    4.8167177641
  - # 6
    frequency:    5.9698707063

- q-position: [    0.3766667,    0.2466667,    0.0000000 ]
  distance:    0.2345614
  band:
  - # 1
    frequency:    3.1610455086
  - # 2
    frequency:    3.7307021877
  - # 3
    frequency:    3.9669245589
  - # 4
    frequency:    4.3628081909
  - # 5
    frequency:    4.8486868004
  - # 6
    frequency:    5.9563305874

- q-position: [    0.3800000,    0.2400000,    0.0000000 ]
  distance:    0.2366371
  band:
  - # 1
    frequency:    3.1325486022
  - # 2
    frequency:    3.6758968873
  - # 3
    frequency:    3.9947239817
  - # 4
    frequency:    4.3680032546
  - # 5
    frequency:    4.8802111682
  - # 6
    frequency:    5.9418884773

- q-position: [    0.3833333,    0.2333333,    0.0000000 ]
  distance:    0.2387129
  band:
  - # 1
    frequency:    3.1045851754
  - # 2
    frequency:    3.6204733206
  - # 3
    frequency:    4.0220115902
  - # 4
    frequency:    4.3734239799
  - # 5
    frequency:    4.9112531872
  - # 6
    frequency:    5.9265771555

- q-position: [    0.3866667,    0.2266667,    0.0000000 ]
  distance:    0.2407887
  band:
  - # 1
    frequency:    3.0771799766
  - # 2
    frequency:    3.5645102105
  - # 3
    frequency:    4.0487691377
  - # 4
    frequency:    4.3790987061
  - # 5
    frequency:    4.9417786131
  - # 6
    frequency:    5.9104307352

- q-position: [    0.3900000,    0.2200000,    0.0000000 ]
  distance:    0.2428644
  band:
  - # 1
    frequency:    3.0503568357
  - # 2
    frequency:    3.5080870761
  - # 3
    frequency:    4.0749785393
  - # 4
    frequency:    4.3850543715
  - # 5
    frequency:    4.9717557159
  - # 6
    frequency:    5.8934847063

- q-position: [    0.3933333,    0.2133333,    0.0000000 ]
  distance:    0.2449402
  band:
  - # 1
    frequency:    3.0241386321
  - # 2
    frequency:    3.4512851006
  - # 3
    frequency:    4.1006219007
  - # 4
    frequency:    4.3913163299
  - # 5
    frequency:    5.0011546690
  - # 6
    frequency:    5.8757759849

- q-position: [    0.3966667,    0.2066667,    0.0000000 ]
  distance:    0.2470160
  band:
  - # 1
    frequency:    2.9985472670
  - # 2
    frequency:    3.3941878110
  - # 3
    frequency:    4.1256815456
  - # 4
    frequency:    4.3979081569
  - # 5
    frequency:    5.0299471397
  - # 6
    frequency:    5.8573429729

- q-position: [    0.4000000,    0.2000000,    0.0000000 ]
  distance:    0.2490917
  band:
  - # 1
    frequency:    2.9736036396
  - # 2
    frequency:    3.3368816401
  - # 3
    frequency:    4.1501400419
  - # 4
    frequency:    4.4048514449
  - # 5
    frequency:    5.0581060114
  - # 6
    frequency:    5.8382256277

- q-position: [    0.4033333,    0.1933333,    0.0000000 ]
  distance:    0.2511675
  band:
  - # 1
    frequency:    2.9493276280
  - # 2
    frequency:    3.2794564104
  - # 3
    frequency:    4.1739802293
  - # 4
    frequency:    4.4121655857
  - # 5
    frequency:    5.0856051950
  - # 6
    frequency:    5.8184655448

- q-position: [    0.4066667,    0.1866667,    0.0000000 ]
  distance:    0.2532432
  band:
  - # 1
    frequency:    2.9257380752
  - # 2
    frequency:    3.2220057689
  - # 3
    frequency:    4.1971852442
  - # 4
    frequency:    4.4198675376
  - # 5
    frequency:    5.1124195012
  - # 6
    frequency:    5.7981060569

- q-position: [    0.4100000,    0.1800000,    0.0000000 ]
  distance:    0.2553190
  band:
  - # 1
    frequency:    2.9028527787
  - # 2
    frequency:    3.1646275868
  - # 3
    frequency:    4.2197385455
  - # 4
    frequency:    4.4279715758
  - # 5
    frequency:    5.1385245562
  - # 6
    frequency:    5.7771923513

- q-position: [    0.4133333,    0.1733333,    0.0000000 ]
  distance:    0.2573948
  band:
  - # 1
    frequency:    2.8806884872
  - # 2
    frequency:    3.1074243349
  - # 3
    frequency:    4.2416239392
  - # 4
    frequency:    4.4364890211
  - # 5
    frequency:    5.1638967467
  - # 6
    frequency:    5.7557716110

- q-position: [    0.4166667,    0.1666667,    0.0000000 ]
  distance:    0.2594705
  band:
  - # 1
    frequency:    2.8592609004
  - # 2
    frequency:    3.0505034377
  - # 3
    frequency:    4.2628256022
  - # 4
    frequency:    4.4454279441
  - # 5
    frequency:    5.1885131868
  - # 6
    frequency:    5.7338931832

- q-position: [    0.4200000,    0.1600000,    0.0000000 ]
  distance:    0.2615463
  band:
  - # 1
    frequency:    2.8385846752
  - # 2
    frequency:    2.9939776075
  - # 3
    frequency:    4.2833281059
  - # 4
    frequency:    4.4547928391
  - # 5
    frequency:    5.2123517002
  - # 6
    frequency:    5.7116087816

- q-position: [    0.4233333,    0.1533333,    0.0000000 ]
  distance:    0.2636221
  band:
  - # 1
    frequency:    2.8186734368
  - # 2
    frequency:    2.9379651535
  - # 3
    frequency:    4.3031164384
  - # 4
    frequency:    4.4645842614
  - # 5
    frequency:    5.2353908144
  - # 6
    frequency:    5.6889727288

- q-position: [    0.4266667,    0.1466667,    0.0000000 ]
  distance:    0.2656978
  band:
  - # 1
    frequency:    2.7995397952
  - # 2
    frequency:    2.8825902608
  - # 3
    frequency:    4.3221760269
  - # 4
    frequency:    4.4747984206
  - # 5
    frequency:    5.2576097615
  - # 6
    frequency:    5.6660422478

- q-position: [    0.4300000,    0.1400000,    0.0000000 ]
  distance:    0.2677736
  band:
  - # 1
    frequency:    2.7811953659
  - # 2
    frequency:    2.8279832276
  - # 3
    frequency:    4.3404927586
  - # 4
    frequency:    4.4854267199
  - # 5
    frequency:    5.2789884865
  - # 6
    frequency:    5.6428778119

- q-position: [    0.4333333,    0.1333333,    0.0000000 ]
  distance:    0.2698494
  band:
  - # 1
    frequency:    2.7636507965
  - # 2
    frequency:    2.7742806481
  - # 3
    frequency:    4.3580530008
  - # 4
    frequency:    4.4964552317
  - # 5
    frequency:    5.2995076589
  - # 6
    frequency:    5.6195435640

- q-position: [    0.4366667,    0.1266667,    0.0000000 ]
  distance:    0.2719251
  band:
  - # 1
    frequency:    2.7216255241
  - # 2
    frequency:    2.7469157972
  - # 3
    frequency:    4.3748436212
  - # 4
    frequency:    4.5078640953
  - # 5
    frequency:    5.3191486870
  - # 6
    frequency:    5.5961078193

- q-position: [    0.4400000,    0.1200000,    0.0000000 ]
  distance:    0.2740009
  band:
  - # 1
    frequency:    2.6701672839
  - # 2
    frequency:    2.7309991758
  - # 3
    frequency:    4.3908520058
  - # 4
    frequency:    4.5196268229
  - # 5
    frequency:    5.3378937351
  - # 6
    frequency:    5.5726436653

- q-position: [    0.4433333,    0.1133333,    0.0000000 ]
  distance:    0.2760767
  band:
  - # 1
    frequency:    2.6200616841
  - # 2
    frequency:    2.7159088762
  - # 3
    frequency:    4.4060660776
  - # 4
    frequency:    4.5317094988
  - # 5
    frequency:    5.3557257412
  - # 6
    frequency:    5.5492296758

- q-position: [    0.4466667,    0.1066667,    0.0000000 ]
  distance:    0.2781524
  band:
  - # 1
    frequency:    2.5714705684
  - # 2
    frequency:    2.7016520214
  - # 3
    frequency:    4.4204743132
  - # 4
    frequency:    4.5440698546
  - # 5
    frequency:    5.3726284353
  - # 6
    frequency:    5.5259507537

- q-position: [    0.4500000,    0.1000000,    0.0000000 ]
  distance:    0.2802282
  band:
  - # 1
    frequency:    2.5245614496
  - # 2
    frequency:    2.6882349582
  - # 3
    frequency:    4.4340657594
  - # 4
    frequency:    4.5566562080
  - # 5
    frequency:    5.3885863590
  - # 6
    frequency:    5.5028991179

- q-position: [    0.4533333,    0.0933333,    0.0000000 ]
  distance:    0.2823039
  band:
  - # 1
    frequency:    2.4795068865
  - # 2
    frequency:    2.6756633048
  - # 3
    frequency:    4.4468300486
  - # 4
    frequency:    4.5694062559
  - # 5
    frequency:    5.4035848836
  - # 6
    frequency:    5.4801754417

- q-position: [    0.4566667,    0.0866667,    0.0000000 ]
  distance:    0.2843797
  band:
  - # 1
    frequency:    2.4364836199
  - # 2
    frequency:    2.6639420005
  - # 3
    frequency:    4.4587574131
  - # 4
    frequency:    4.5822457250
  - # 5
    frequency:    5.4176102290
  - # 6
    frequency:    5.4578901392

- q-position: [    0.4600000,    0.0800000,    0.0000000 ]