  36   36
   1   1
     5.759081423222630     0.000000000000005     0.000000000000000
     0.000000000000005     5.759081423222972    -0.000000000000000
     0.000000000000000    -0.000000000000000     5.984473965452247
   1   2
    -1.433424414295031    -0.422250008928900     0.000000000000000
     0.422250008930385    -0.183180273999810    -0.000000000000000
    -0.000000000000000    -0.000000000000000    -0.108572171454487
   1   3
    -1.433424414295065     0.422250008928954     0.000000000000000
    -0.422250008930468    -0.183180273999821     0.000000000000000
    -0.000000000000000     0.000000000000000    -0.108572171454487
   1   4
    -0.495741309073079     0.119121584284474     0.000000000000000
     0.963621602144310    -1.120863379222718    -0.000000000000000
    -0.000000000000000     0.000000000000000    -0.108572171454487
   1   5
    -0.495741309073082    -0.119121584284407     0.000000000000000
    -0.963621602144382    -1.120863379222759     0.000000000000000
     0.000000000000000     0.000000000000000    -0.108572171454487
   1   6
    -0.069352760584597     0.000000000000024    -0.000000000000000
    -0.000000000000025    -0.069352760584252     0.000000000000000
    -0.000000000000000    -0.000000000000000    -0.155397790877398
   1   7
    -0.495741309074047     0.963621602143987    -0.000000000000000
     0.119121584285116    -1.120863379221795     0.000000000000000
    -0.000000000000000     0.000000000000000    -0.108572171454487
   1   8
    -0.069352760584501     0.000000000000023    -0.000000000000000
    -0.000000000000024    -0.069352760584156     0.000000000000000
    -0.000000000000000    -0.000000000000000    -0.155397790877398
   1   9
    -0.495741309074018    -0.963621602143899    -0.000000000000000
    -0.119121584285167    -1.120863379221778    -0.000000000000000
    -0.000000000000000     0.000000000000000    -0.108572171454487
   1  10
     0.375713180049206    -0.000000000000000    -0.000000000000000
    -0.000000000000000     0.375713180049550    -0.000000000000000
    -0.000000000000000    -0.000000000000000    -1.145119666755561
   1  11
    -0.185833367836146     0.071046983147876     0.000000000000000
    -0.071046983147796     0.037116593154591     0.000000000000000
    -0.000000000000000    -0.000000000000000     0.035151231372031
   1  12
    -0.185833367836180    -0.071046983147824     0.000000000000000
     0.071046983147708     0.037116593154581     0.000000000000000
    -0.000000000000000    -0.000000000000000     0.035151231372031
   1  13
    -0.018620897093116     0.167587148143045     0.000000000000000
     0.025493181847471    -0.130095877588611    -0.000000000000000
    -0.000000000000000     0.000000000000000     0.035151231372031
   1  14
    -0.018620897093117    -0.167587148142976    -0.000000000000000
    -0.025493181847543    -0.130095877588653     0.000000000000000
    -0.000000000000000     0.000000000000000     0.035151231372031
   1  15
     0.043343971455041     0.000000000000024    -0.000000000000000
    -0.000000000000025     0.043343971455386     0.000000000000000
    -0.000000000000000    -0.000000000000000     0.000653268987902
   1  16
    -0.018620897093305     0.025493181847655    -0.000000000000000
     0.167587148143286    -0.130095877588465     0.000000000000000
    -0.000000000000000     0.000000000000000     0.035151231372031
   1  17
     0.043343971455137     0.000000000000023    -0.000000000000000
    -0.000000000000024     0.043343971455482    -0.000000000000000
    -0.000000000000000    -0.000000000000000     0.000653268987902
   1  18
    -0.018620897093274    -0.025493181847567    -0.000000000000000
    -0.167587148143337    -0.130095877588452    -0.000000000000000
     0.000000000000000     0.000000000000000     0.035151231372031
   1  19
    -0.496788252604148    -0.335691009073338    -0.729965788888618
    -0.335691009073351    -0.109165663697734    -0.421445944714060
    -0.729965788888618    -0.421445944714060    -0.879590477616739
   1  20
     0.045623315713080     0.000000000000016     0.000000000000000
    -0.000000000000023    -0.101055286922615     0.021345939228122
     0.000000000000000     0.021345939228122     0.045297577990042
   1  21
    -0.496788252603779     0.335691009073248     0.729965788888245
     0.335691009073868    -0.109165663698104    -0.421445944714706
     0.729965788888616    -0.421445944714062    -0.879590477616739
   1  22
     0.257663211104432     0.000000000000043     0.000000000000000
    -0.000000000000050     0.141451797712881     0.106562578067930
     0.000000000000000     0.106562578067930     0.152736297222869
   1  23
    -0.064385636263713     0.063513698037118     0.018486125639174
     0.063513698037119     0.008953665054334    -0.010672969614061
     0.018486125639192    -0.010672969614061     0.045297577990042
   1  24
    -0.064385636263719    -0.063513698037076    -0.018486125639174
    -0.063513698037154     0.008953665054340    -0.010672969614061
    -0.018486125639193    -0.010672969614061     0.045297577990042
   1  25
     0.170504651060561     0.050321018103584     0.092285899699495
     0.050321018103517     0.228610357756884    -0.053281289033965
     0.092285899699590    -0.053281289033965     0.152736297222869
   1  26
     0.170504651060556    -0.050321018103488    -0.092285899699496
    -0.050321018103607     0.228610357756890    -0.053281289033965
    -0.092285899699590    -0.053281289033965     0.152736297222869
   1  27
     0.084645630755000    -0.000000000000365     0.000000000000372
    -0.000000000000062    -0.690599547057520     0.842891889428766
     0.000000000000001     0.842891889428121    -0.879590477616739
   1  28
    -0.496788252604148    -0.335691009073338     0.729965788888618
    -0.335691009073351    -0.109165663697734     0.421445944714060
     0.729965788888618     0.421445944714060    -0.879590477616739
   1  29
     0.045623315713080     0.000000000000016    -0.000000000000000
    -0.000000000000023    -0.101055286922615    -0.021345939228122
    -0.000000000000000    -0.021345939228122     0.045297577990042
   1  30
    -0.496788252603779     0.335691009073248    -0.729965788888245
     0.335691009073868    -0.109165663698104     0.421445944714706
    -0.729965788888616     0.421445944714062    -0.879590477616739
   1  31
     0.257663211104432     0.000000000000043    -0.000000000000000
    -0.000000000000050     0.141451797712881    -0.106562578067930
    -0.000000000000000    -0.106562578067930     0.152736297222869
   1  32
    -0.064385636263713     0.063513698037118    -0.018486125639174
     0.063513698037118     0.008953665054334     0.010672969614061
    -0.018486125639192     0.010672969614061     0.045297577990042
   1  33
    -0.064385636263719    -0.063513698037076     0.018486125639174
    -0.063513698037154     0.008953665054340     0.010672969614061
     0.018486125639193     0.010672969614061     0.045297577990042
   1  34
     0.170504651060561     0.050321018103584    -0.092285899699495
     0.050321018103516     0.228610357756884     0.053281289033965
    -0.092285899699590     0.053281289033965     0.152736297222869
   1  35
     0.170504651060556    -0.050321018103488     0.092285899699496
    -0.050321018103607     0.228610357756890     0.053281289033965
     0.092285899699590     0.053281289033965     0.152736297222869
   1  36
     0.084645630755000    -0.000000000000365    -0.000000000000373
    -0.000000000000062    -0.690599547057520    -0.842891889428766
    -0.000000000000001    -0.842891889428121    -0.879590477616739
   2   1
    -1.433424414295031     0.422250008930385    -0.000000000000000
    -0.422250008928900    -0.183180273999810    -0.000000000000000
     0.000000000000000    -0.000000000000000    -0.108572171454487
   2   2
     5.759081423214281    -0.000000000004967    -0.000000000000000
    -0.000000000004967     5.759081423231519     0.000000000000000
    -0.000000000000000     0.000000000000000     5.984473965452247
   2   3
    -1.433424414293171    -0.422250008928806     0.000000000000000
     0.422250008928777    -0.183180274000661    -0.000000000000000
     0.000000000000000     0.000000000000000    -0.108572171454487
   2   4
    -0.069352760584006    -0.000000000000048     0.000000000000000
    -0.000000000000048    -0.069352760584566    -0.000000000000000
    -0.000000000000000    -0.000000000000000    -0.155397790877398
   2   5
    -0.495741309073369     0.119121584286080    -0.000000000000000
     0.963621602144765    -1.120863379224294     0.000000000000000
     0.000000000000000    -0.000000000000000    -0.108572171454487
   2   6
    -0.495741309073464    -0.119121584284958     0.000000000000000
    -0.963621602142635    -1.120863379222419     0.000000000000000
     0.000000000000000     0.000000000000000    -0.108572171454487
   2   7
    -0.495741309073008    -0.963621602144322     0.000000000000000
    -0.119121584284531    -1.120863379222740     0.000000000000000
     0.000000000000000     0.000000000000000    -0.108572171454487
   2   8
    -0.495741309073844     0.963621602144944    -0.000000000000000
     0.119121584285613    -1.120863379222804     0.000000000000000
     0.000000000000000    -0.000000000000000    -0.108572171454487
   2   9
    -0.069352760584192     0.000000000000096     0.000000000000000
     0.000000000000096    -0.069352760584381    -0.000000000000000
     0.000000000000000    -0.000000000000000    -0.155397790877398
   2  10
    -0.185833367836146    -0.071046983147796     0.000000000000000
     0.071046983147876     0.037116593154591    -0.000000000000000
     0.000000000000000    -0.000000000000000     0.035151231372031
   2  11
     0.375713180049104    -0.000000000000208     0.000000000000000
    -0.000000000000208     0.375713180049845    -0.000000000000000
     0.000000000000000    -0.000000000000000    -1.145119666755561
   2  12
    -0.185833367835894     0.071046983147988     0.000000000000000
    -0.071046983148023     0.037116593154563    -0.000000000000000
     0.000000000000000    -0.000000000000000     0.035151231372031
   2  13
     0.043343971455459    -0.000000000000048     0.000000000000000
    -0.000000000000048     0.043343971455244    -0.000000000000000
    -0.000000000000000    -0.000000000000000     0.000653268987902
   2  14
    -0.018620897092962     0.167587148143599    -0.000000000000000
     0.025493181847784    -0.130095877589054    -0.000000000000000
    -0.000000000000000    -0.000000000000000     0.035151231372031
   2  15
    -0.018620897093063    -0.167587148143374     0.000000000000000
    -0.025493181847455    -0.130095877588746    -0.000000000000000
    -0.000000000000000     0.000000000000000     0.035151231372031
   2  16
    -0.018620897093043    -0.025493181847481     0.000000000000000
    -0.167587148143099    -0.130095877588631    -0.000000000000000
     0.000000000000000     0.000000000000000     0.035151231372031
   2  17
    -0.018620897093053     0.025493181847682     0.000000000000000
     0.167587148143308    -0.130095877588736    -0.000000000000000
     0.000000000000000    -0.000000000000000     0.035151231372031
   2  18
     0.043343971455360     0.000000000000046     0.000000000000000
     0.000000000000046     0.043343971455343    -0.000000000000000
    -0.000000000000000     0.000000000000000     0.000653268987902
   2  19
    -0.496788252603677     0.335691009073848     0.729965788888616
     0.335691009073181    -0.109165663698108    -0.421445944714061
     0.729965788888244    -0.421445944714706    -0.879590477616739
   2  20
    -0.496788252603427    -0.335691009073306    -0.729965788888616
    -0.335691009072971    -0.109165663697865    -0.421445944714060
    -0.729965788887873    -0.421445944714060    -0.879590477616739
   2  21
     0.045623315713429     0.000000000000194    -0.000000000000009
     0.000000000000162    -0.101055286922992     0.021345939228138
    -0.000000000000009     0.021345939228138     0.045297577990042
   2  22
    -0.064385636263681    -0.063513698037141    -0.018486125639192
    -0.063513698037138     0.008953665054314    -0.010672969614061
    -0.018486125639174    -0.010672969614061     0.045297577990042
   2  23
     0.257663211104480    -0.000000000000053     0.000000000000047
     0.000000000000017     0.141451797712836     0.106562578068011
    -0.000000000000047     0.106562578068011     0.152736297222869
   2  24
    -0.064385636263517     0.063513698037371     0.018486125639183
     0.063513698037389     0.008953665054121    -0.010672969614077
     0.018486125639183    -0.010672969614077     0.045297577990042
   2  25
     0.084645630755145    -0.000000000000333     0.000000000000371
     0.000000000000264    -0.690599547058215     0.842891889428767
    -0.000000000000371     0.842891889428767    -0.879590477616739
   2  26
     0.170504651060596     0.050321018103561     0.092285899699543
     0.050321018103526     0.228610357756857    -0.053281289034047
     0.092285899699543    -0.053281289034047     0.152736297222869
   2  27
     0.170504651060673    -0.050321018103547    -0.092285899699542
    -0.050321018103605     0.228610357756922    -0.053281289034046
    -0.092285899699495    -0.053281289033965     0.152736297222869
   2  28
    -0.496788252603677     0.335691009073848    -0.729965788888616
     0.335691009073181    -0.109165663698108     0.421445944714061
    -0.729965788888244     0.421445944714706    -0.879590477616739
   2  29
    -0.496788252603427    -0.335691009073306     0.729965788888617
    -0.335691009072971    -0.109165663697865     0.421445944714060
     0.729965788887873     0.421445944714060    -0.879590477616739
   2  30
     0.045623315713429     0.000000000000194     0.000000000000009
     0.000000000000162    -0.101055286922992    -0.021345939228138
     0.000000000000009    -0.021345939228138     0.045297577990042
   2  31
    -0.064385636263681    -0.063513698037141     0.018486125639192
    -0.063513698037138     0.008953665054314     0.010672969614061
     0.018486125639174     0.010672969614061     0.045297577990042
   2  32
     0.257663211104480    -0.000000000000053    -0.000000000000047
     0.000000000000017     0.141451797712836    -0.106562578068012
     0.000000000000047    -0.106562578068011     0.152736297222869
   2  33
    -0.064385636263517     0.063513698037371    -0.018486125639183
     0.063513698037389     0.008953665054121     0.010672969614077
    -0.018486125639183     0.010672969614077     0.045297577990042
   2  34
     0.084645630755145    -0.000000000000333    -0.000000000000371
     0.000000000000264    -0.690599547058215    -0.842891889428767
     0.000000000000371    -0.842891889428767    -0.879590477616739
   2  35
     0.170504651060596     0.050321018103561    -0.092285899699543
     0.050321018103526     0.228610357756857     0.053281289034047
    -0.092285899699543     0.053281289034047     0.152736297222869
   2  36
     0.170504651060673    -0.050321018103547     0.092285899699542
    -0.050321018103605     0.228610357756922     0.053281289034046
     0.092285899699495     0.053281289033965     0.152736297222869
   3   1
    -1.433424414295065    -0.422250008930468    -0.000000000000000
     0.422250008928954    -0.183180273999821     0.000000000000000
     0.000000000000000     0.000000000000000    -0.108572171454487
   3   2
    -1.433424414293171     0.422250008928777     0.000000000000000
    -0.422250008928806    -0.183180274000661     0.000000000000000
     0.000000000000000    -0.000000000000000    -0.108572171454487
   3   3
     5.759081423214215     0.000000000004910    -0.000000000000000
     0.000000000004910     5.759081423231496     0.000000000000000
    -0.000000000000000     0.000000000000000     5.984473965452247
   3   4
    -0.495741309073402    -0.119121584286097    -0.000000000000000
    -0.963621602144782    -1.120863379224257    -0.000000000000000
     0.000000000000000     0.000000000000000    -0.108572171454487
   3   5
    -0.069352760584041     0.000000000000029    -0.000000000000000
     0.000000000000029    -0.069352760584620     0.000000000000000
    -0.000000000000000     0.000000000000000    -0.155397790877398
   3   6
    -0.495741309073495     0.119121584284918    -0.000000000000000
     0.963621602142637    -1.120863379222433     0.000000000000000
     0.000000000000000    -0.000000000000000    -0.108572171454487
   3   7
    -0.069352760584257    -0.000000000000094    -0.000000000000000
    -0.000000000000094    -0.069352760584404     0.000000000000000
    -0.000000000000000    -0.000000000000000    -0.155397790877398
   3   8
    -0.495741309073880    -0.963621602144986     0.000000000000000
    -0.119121584285608    -1.120863379222812     0.000000000000000
     0.000000000000000     0.000000000000000    -0.108572171454487
   3   9
    -0.495741309073010     0.963621602144325     0.000000000000000
     0.119121584284534    -1.120863379222742    -0.000000000000000
     0.000000000000000    -0.000000000000000    -0.108572171454487
   3  10
    -0.185833367836180     0.071046983147708    -0.000000000000000
    -0.071046983147824     0.037116593154580    -0.000000000000000
     0.000000000000000    -0.000000000000000     0.035151231372031
   3  11
    -0.185833367835894    -0.071046983148023     0.000000000000000
     0.071046983147988     0.037116593154562    -0.000000000000000
     0.000000000000000    -0.000000000000000     0.035151231372031
   3  12
     0.375713180049037     0.000000000000172     0.000000000000000
     0.000000000000172     0.375713180049824     0.000000000000000
     0.000000000000000     0.000000000000000    -1.145119666755561
   3  13
    -0.018620897092995    -0.167587148143617    -0.000000000000000
    -0.025493181847802    -0.130095877589020    -0.000000000000000
     0.000000000000000     0.000000000000000     0.035151231372031
   3  14
     0.043343971455425     0.000000000000029    -0.000000000000000
     0.000000000000029     0.043343971455190    -0.000000000000000
    -0.000000000000000     0.000000000000000     0.000653268987902
   3  15
    -0.018620897093097     0.167587148143334    -0.000000000000000
     0.025493181847459    -0.130095877588757     0.000000000000000
    -0.000000000000000    -0.000000000000000     0.035151231372031
   3  16
     0.043343971455294    -0.000000000000045     0.000000000000000
    -0.000000000000045     0.043343971455320    -0.000000000000000
    -0.000000000000000     0.000000000000000     0.000653268987902
   3  17
    -0.018620897093087    -0.025493181847724    -0.000000000000000
    -0.167587148143302    -0.130095877588746    -0.000000000000000
     0.000000000000000     0.000000000000000     0.035151231372031
   3  18
    -0.018620897093045     0.025493181847483    -0.000000000000000
     0.167587148143100    -0.130095877588630    -0.000000000000000
     0.000000000000000     0.000000000000000     0.035151231372031
   3  19
     0.045623315713294    -0.000000000000120     0.000000000000000
    -0.000000000000090    -0.101055286922790     0.021345939228122
     0.000000000000009     0.021345939228138     0.045297577990042
   3  20
    -0.496788252603460     0.335691009073253     0.729965788888616
     0.335691009072979    -0.109165663697877    -0.421445944714062
     0.729965788887872    -0.421445944714062    -0.879590477616739
   3  21
    -0.496788252603047    -0.335691009073511    -0.729965788887873
    -0.335691009073124    -0.109165663698187    -0.421445944714058
    -0.729965788888244    -0.421445944714703    -0.879590477616739
   3  22
    -0.064385636263715     0.063513698037141     0.018486125639192
     0.063513698037090     0.008953665054303    -0.010672969614061
     0.018486125639174    -0.010672969614061     0.045297577990042
   3  23
    -0.064385636263545    -0.063513698037416    -0.018486125639183
    -0.063513698037372     0.008953665054106    -0.010672969614077
    -0.018486125639183    -0.010672969614077     0.045297577990042
   3  24
     0.257663211104441     0.000000000000007    -0.000000000000047
    -0.000000000000001     0.141451797712831     0.106562578068011
     0.000000000000047     0.106562578068011     0.152736297222869
   3  25
     0.170504651060567    -0.050321018103554    -0.092285899699543
    -0.050321018103564     0.228610357756842    -0.053281289034046
    -0.092285899699543    -0.053281289034046     0.152736297222869
   3  26
     0.084645630755106     0.000000000000342    -0.000000000000372
    -0.000000000000302    -0.690599547058218     0.842891889428765
     0.000000000000372     0.842891889428766    -0.879590477616739
   3  27
     0.170504651060684     0.050321018103542     0.092285899699495
     0.050321018103611     0.228610357756955    -0.053281289033965
     0.092285899699495    -0.053281289033965     0.152736297222869
   3  28
     0.045623315713294    -0.000000000000120    -0.000000000000000
    -0.000000000000090    -0.101055286922790    -0.021345939228122
    -0.000000000000009    -0.021345939228138     0.045297577990042
   3  29
    -0.496788252603460     0.335691009073253    -0.729965788888616
     0.335691009072979    -0.109165663697877     0.421445944714062
    -0.729965788887872     0.421445944714062    -0.879590477616739
   3  30
    -0.496788252603047    -0.335691009073511     0.729965788887873
    -0.335691009073124    -0.109165663698187     0.421445944714058
     0.729965788888244     0.421445944714703    -0.879590477616739
   3  31
    -0.064385636263715     0.063513698037141    -0.018486125639192
     0.063513698037090     0.008953665054303     0.010672969614061
    -0.018486125639174     0.010672969614061     0.045297577990042
   3  32
    -0.064385636263545    -0.063513698037416     0.018486125639183
    -0.063513698037372     0.008953665054106     0.010672969614077
     0.018486125639183     0.010672969614077     0.045297577990042
   3  33
     0.257663211104441     0.000000000000007     0.000000000000047
    -0.000000000000001     0.141451797712831    -0.106562578068011
    -0.000000000000047    -0.106562578068011     0.152736297222869
   3  34
     0.170504651060567    -0.050321018103554     0.092285899699543
    -0.050321018103564     0.228610357756842     0.053281289034046
     0.092285899699543     0.053281289034046     0.152736297222869
   3  35
     0.084645630755106     0.000000000000342     0.000000000000372
    -0.000000000000302    -0.690599547058218    -0.842891889428765
    -0.000000000000372    -0.842891889428766    -0.879590477616739
   3  36
     0.170504651060684     0.050321018103542    -0.092285899699495
     0.050321018103611     0.228610357756955     0.053281289033965
    -0.092285899699495     0.053281289033965     0.152736297222869
   4   1
    -0.495741309073079     0.963621602144310    -0.000000000000000
     0.119121584284474    -1.120863379222718     0.000000000000000
     0.000000000000000    -0.000000000000000    -0.108572171454487
   4   2
    -0.069352760584006    -0.000000000000048    -0.000000000000000
    -0.000000000000048    -0.069352760584566    -0.000000000000000
     0.000000000000000    -0.000000000000000    -0.155397790877398
   4   3
    -0.495741309073402    -0.963621602144782     0.000000000000000
    -0.119121584286097    -1.120863379224257     0.000000000000000
    -0.000000000000000    -0.000000000000000    -0.108572171454487
   4   4
     5.759081423214250     0.000000000004865    -0.000000000000000
     0.000000000004865     5.759081423231555     0.000000000000000
    -0.000000000000000     0.000000000000000     5.984473965452247
   4   5
    -1.433424414293953    -0.422250008929893     0.000000000000000
     0.422250008929897    -0.183180273999885     0.000000000000000
     0.000000000000000    -0.000000000000000    -0.108572171454487
   4   6
    -1.433424414294735     0.422250008928971    -0.000000000000000
    -0.422250008929258    -0.183180274000193    -0.000000000000000
     0.000000000000000    -0.000000000000000    -0.108572171454487
   4   7
    -0.495741309073411     0.119121584284972    -0.000000000000000
     0.963621602142555    -1.120863379222335     0.000000000000000
     0.000000000000000    -0.000000000000000    -0.108572171454487
   4   8
    -0.495741309073506    -0.119121584285569    -0.000000000000000
    -0.963621602143796    -1.120863379223141     0.000000000000000
    -0.000000000000000    -0.000000000000000    -0.108572171454487
   4   9
    -0.069352760584223    -0.000000000000137    -0.000000000000000
    -0.000000000000137    -0.069352760584349    -0.000000000000000
    -0.000000000000000    -0.000000000000000    -0.155397790877398
   4  10
    -0.018620897093116     0.025493181847471     0.000000000000000
     0.167587148143045    -0.130095877588611     0.000000000000000
     0.000000000000000    -0.000000000000000     0.035151231372031
   4  11
     0.043343971455459    -0.000000000000048    -0.000000000000000
    -0.000000000000048     0.043343971455244    -0.000000000000000
    -0.000000000000000    -0.000000000000000     0.000653268987902
   4  12
    -0.018620897092995    -0.025493181847802     0.000000000000000
    -0.167587148143617    -0.130095877589020     0.000000000000000
    -0.000000000000000    -0.000000000000000     0.035151231372031
   4  13
     0.375713180049043     0.000000000000112    -0.000000000000000
     0.000000000000112     0.375713180049906    -0.000000000000000
    -0.000000000000000    -0.000000000000000    -1.145119666755561
   4  14
    -0.185833367835800     0.071046983147808     0.000000000000000
    -0.071046983147809     0.037116593154466     0.000000000000000
    -0.000000000000000    -0.000000000000000     0.035151231372031
   4  15
    -0.185833367836283    -0.071046983148107    -0.000000000000000
     0.071046983147713     0.037116593154643    -0.000000000000000
    -0.000000000000000     0.000000000000000     0.035151231372031
   4  16
    -0.018620897093011     0.167587148143388    -0.000000000000000
     0.025493181847377    -0.130095877588662     0.000000000000000
     0.000000000000000    -0.000000000000000     0.035151231372031
   4  17
    -0.018620897093147    -0.167587148143563     0.000000000000000
    -0.025493181847741    -0.130095877588641    -0.000000000000000
    -0.000000000000000    -0.000000000000000     0.035151231372031
   4  18
     0.043343971455328    -0.000000000000087     0.000000000000000
    -0.000000000000087     0.043343971455375    -0.000000000000000
    -0.000000000000000     0.000000000000000     0.000653268987902
   4  19
     0.170504651060658     0.050321018103540     0.092285899699590
     0.050321018103508     0.228610357756981    -0.053281289033965
     0.092285899699496    -0.053281289033965     0.152736297222869
   4  20
     0.170504651060568    -0.050321018103631    -0.092285899699590
    -0.050321018103536     0.228610357756882    -0.053281289033965
    -0.092285899699543    -0.053281289034046     0.152736297222869
   4  21
     0.084645630755141     0.000000000000341    -0.000000000000373
    -0.000000000000377    -0.690599547058110     0.842891889428764
     0.000000000000373     0.842891889428764    -0.879590477616739
   4  22
    -0.496788252603796    -0.335691009073889    -0.729965788888617
    -0.335691009073267    -0.109165663698131    -0.421445944714060
    -0.729965788888246    -0.421445944714704    -0.879590477616739
   4  23
     0.045623315713382    -0.000000000000198     0.000000000000009
    -0.000000000000230    -0.101055286923001     0.021345939228138
     0.000000000000009     0.021345939228138     0.045297577990042
   4  24
    -0.496788252603068     0.335691009073126     0.729965788888246
     0.335691009073486    -0.109165663698183    -0.421445944714706
     0.729965788887873    -0.421445944714062    -0.879590477616739
   4  25
     0.257663211104438     0.000000000000013     0.000000000000047
    -0.000000000000073     0.141451797712837     0.106562578068011
     0.000000000000047     0.106562578068011     0.152736297222869
   4  26
    -0.064385636263503     0.063513698037186     0.018486125639183
     0.063513698037215     0.008953665054179    -0.010672969614077
     0.018486125639174    -0.010672969614061     0.045297577990042
   4  27
    -0.064385636263526    -0.063513698037419    -0.018486125639183
    -0.063513698037427     0.008953665054143    -0.010672969614077
    -0.018486125639183    -0.010672969614077     0.045297577990042
   4  28
     0.170504651060658     0.050321018103540    -0.092285899699590
     0.050321018103508     0.228610357756981     0.053281289033965
    -0.092285899699496     0.053281289033965     0.152736297222869
   4  29
     0.170504651060568    -0.050321018103631     0.092285899699590
    -0.050321018103536     0.228610357756882     0.053281289033965
     0.092285899699543     0.053281289034046     0.152736297222869
   4  30
     0.084645630755141     0.000000000000341     0.000000000000373
    -0.000000000000377    -0.690599547058110    -0.842891889428764
    -0.000000000000372    -0.842891889428765    -0.879590477616739
   4  31
    -0.496788252603796    -0.335691009073889     0.729965788888617
    -0.335691009073267    -0.109165663698131     0.421445944714060
     0.729965788888246     0.421445944714704    -0.879590477616739
   4  32
     0.045623315713382    -0.000000000000198    -0.000000000000009
    -0.000000000000230    -0.101055286923001    -0.021345939228138
    -0.000000000000009    -0.021345939228138     0.045297577990042
   4  33
    -0.496788252603068     0.335691009073126    -0.729965788888245
     0.335691009073486    -0.109165663698183     0.421445944714705
    -0.729965788887873     0.421445944714062    -0.879590477616739
   4  34
     0.257663211104438     0.000000000000013    -0.000000000000047
    -0.000000000000073     0.141451797712837    -0.106562578068011
    -0.000000000000047    -0.106562578068011     0.152736297222869
   4  35
    -0.064385636263503     0.063513698037186    -0.018486125639183
     0.063513698037215     0.008953665054179     0.010672969614077