  36   36
   1   1
     5.759081457428342     0.000000000000005     0.000000000000000
     0.000000000000005     5.759081457428682    -0.000000000000000
     0.000000000000000    -0.000000000000000     5.984473951697075
   1   2
    -1.433424435142902    -0.422249981945910     0.000000000000000
     0.422249981947395    -0.183180282860484    -0.000000000000000
    -0.000000000000000     0.000000000000000    -0.108572157951702
   1   3
    -1.433424435142935     0.422249981945964     0.000000000000000
    -0.422249981947478    -0.183180282860495     0.000000000000000
    -0.000000000000000     0.000000000000000    -0.108572157951702
   1   4
    -0.495741320930553     0.119121616458073    -0.000000000000000
     0.963621580351929    -1.120863397073790    -0.000000000000000
    -0.000000000000000     0.000000000000000    -0.108572157951702
   1   5
    -0.495741320930555    -0.119121616458006     0.000000000000000
    -0.963621580352001    -1.120863397073831     0.000000000000000
     0.000000000000000     0.000000000000000    -0.108572157951702
   1   6
    -0.069352736190883     0.000000000000024    -0.000000000000000
    -0.000000000000025    -0.069352736190539     0.000000000000000
    -0.000000000000000     0.000000000000000    -0.155397768288628
   1   7
    -0.495741320931521     0.963621580351605    -0.000000000000000
     0.119121616458714    -1.120863397072867     0.000000000000000
    -0.000000000000000     0.000000000000000    -0.108572157951702
   1   8
    -0.069352736190788     0.000000000000023    -0.000000000000000
    -0.000000000000024    -0.069352736190443     0.000000000000000
    -0.000000000000000     0.000000000000000    -0.155397768288628
   1   9
    -0.495741320931491    -0.963621580351518    -0.000000000000000
    -0.119121616458766    -1.120863397072850    -0.000000000000000
    -0.000000000000000     0.000000000000000    -0.108572157951702
   1  10
     0.375713248596903    -0.000000000000000    -0.000000000000000
    -0.000000000000000     0.375713248597247     0.000000000000000
    -0.000000000000000     0.000000000000000    -1.145119653252777
   1  11
    -0.185833400481474     0.071047006860201     0.000000000000000
    -0.071047006860120     0.037116596091373     0.000000000000000
     0.000000000000000     0.000000000000000     0.035151218374024
   1  12
    -0.185833400481507    -0.071047006860149     0.000000000000000
     0.071047006860033     0.037116596091363    -0.000000000000000
    -0.000000000000000     0.000000000000000     0.035151218374024
   1  13
    -0.018620903051860     0.167587187262875     0.000000000000000
     0.025493173542652    -0.130095901338410    -0.000000000000000
    -0.000000000000000     0.000000000000000     0.035151218374024
   1  14
    -0.018620903051862    -0.167587187262806     0.000000000000000
    -0.025493173542723    -0.130095901338453     0.000000000000000
    -0.000000000000000     0.000000000000000     0.035151218374024
   1  15
     0.043343983583759     0.000000000000024    -0.000000000000000
    -0.000000000000025     0.043343983584104     0.000000000000000
    -0.000000000000000     0.000000000000000     0.000653243875247
   1  16
    -0.018620903052050     0.025493173542836    -0.000000000000000
     0.167587187263116    -0.130095901338264     0.000000000000000
    -0.000000000000000     0.000000000000000     0.035151218374024
   1  17
     0.043343983583855     0.000000000000023    -0.000000000000000
    -0.000000000000024     0.043343983584199     0.000000000000000
    -0.000000000000000     0.000000000000000     0.000653243875247
   1  18
    -0.018620903052019    -0.025493173542747    -0.000000000000000
    -0.167587187263167    -0.130095901338252    -0.000000000000000
    -0.000000000000000     0.000000000000000     0.035151218374024
   1  19
    -0.496788263801463    -0.335690967333310    -0.729965764290830
    -0.335690967333324    -0.109165723092282    -0.421445930512520
    -0.729965764290830    -0.421445930512520    -0.879590477742934
   1  20
     0.045623341157175     0.000000000000016     0.000000000000000
    -0.000000000000023    -0.101055332263259     0.021345966960311
     0.000000000000000     0.021345966960311     0.045297577106683
   1  21
    -0.496788263801094     0.335690967333220     0.729965764290457
     0.335690967333840    -0.109165723092652    -0.421445930513167
     0.729965764290829    -0.421445930512522    -0.879590477742933
   1  22
     0.257663268963761     0.000000000000043     0.000000000000000
    -0.000000000000050     0.141451831159630     0.106562578360237
     0.000000000000000     0.106562578360237     0.152736298611006
   1  23
    -0.064385663908172     0.063513728687809     0.018486149655954
     0.063513728687810     0.008953672802244    -0.010672983480156
     0.018486149655973    -0.010672983480156     0.045297577106683
   1  24
    -0.064385663908178    -0.063513728687767    -0.018486149655954
    -0.063513728687846     0.008953672802250    -0.010672983480156
    -0.018486149655973    -0.010672983480156     0.045297577106683
   1  25
     0.170504690610455     0.050321028674541     0.092285899952641
     0.050321028674473     0.228610409513068    -0.053281289180119
     0.092285899952735    -0.053281289180119     0.152736298611006
   1  26
     0.170504690610450    -0.050321028674445    -0.092285899952641
    -0.050321028674564     0.228610409513074    -0.053281289180118
    -0.092285899952735    -0.053281289180118     0.152736298611006
   1  27
     0.084645547261836    -0.000000000000365     0.000000000000372
    -0.000000000000062    -0.690599534156219     0.842891861025687
     0.000000000000001     0.842891861025043    -0.879590477742933
   1  28
    -0.496788263801463    -0.335690967333310     0.729965764290830
    -0.335690967333324    -0.109165723092282     0.421445930512521
     0.729965764290830     0.421445930512520    -0.879590477742933
   1  29
     0.045623341157175     0.000000000000016    -0.000000000000000
    -0.000000000000023    -0.101055332263259    -0.021345966960311
    -0.000000000000000    -0.021345966960311     0.045297577106683
   1  30
    -0.496788263801094     0.335690967333220    -0.729965764290457
     0.335690967333840    -0.109165723092652     0.421445930513167
    -0.729965764290829     0.421445930512522    -0.879590477742933
   1  31
     0.257663268963761     0.000000000000043    -0.000000000000000
    -0.000000000000050     0.141451831159630    -0.106562578360237
    -0.000000000000000    -0.106562578360237     0.152736298611006
   1  32
    -0.064385663908172     0.063513728687809    -0.018486149655954
     0.063513728687810     0.008953672802244     0.010672983480156
    -0.018486149655973     0.010672983480156     0.045297577106683
   1  33
    -0.064385663908178    -0.063513728687767     0.018486149655954
    -0.063513728687846     0.008953672802250     0.010672983480156
     0.018486149655973     0.010672983480156     0.045297577106683
   1  34
     0.170504690610455     0.050321028674541    -0.092285899952641
     0.050321028674473     0.228610409513068     0.053281289180119
    -0.092285899952735     0.053281289180119     0.152736298611006
   1  35
     0.170504690610450    -0.050321028674445     0.092285899952641
    -0.050321028674564     0.228610409513074     0.053281289180118
     0.092285899952735     0.053281289180118     0.152736298611006
   1  36
     0.084645547261836    -0.000000000000365    -0.000000000000372
    -0.000000000000062    -0.690599534156219    -0.842891861025687
    -0.000000000000001    -0.842891861025043    -0.879590477742933
   2   1
    -1.433424435142902     0.422249981947395    -0.000000000000000
    -0.422249981945910    -0.183180282860484     0.000000000000000
     0.000000000000000    -0.000000000000000    -0.108572157951702
   2   2
     5.759081457419992    -0.000000000004966    -0.000000000000000
    -0.000000000004966     5.759081457437225     0.000000000000000
    -0.000000000000000     0.000000000000000     5.984473951697075
   2   3
    -1.433424435141041    -0.422249981945816     0.000000000000000
     0.422249981945786    -0.183180282861335    -0.000000000000000
     0.000000000000000     0.000000000000000    -0.108572157951702
   2   4
    -0.069352736190293    -0.000000000000048     0.000000000000000
    -0.000000000000048    -0.069352736190853    -0.000000000000000
     0.000000000000000    -0.000000000000000    -0.155397768288628
   2   5
    -0.495741320930842     0.119121616459679     0.000000000000000
     0.963621580352384    -1.120863397075365     0.000000000000000
     0.000000000000000     0.000000000000000    -0.108572157951702
   2   6
    -0.495741320930937    -0.119121616458557     0.000000000000000
    -0.963621580350253    -1.120863397073491     0.000000000000000
     0.000000000000000     0.000000000000000    -0.108572157951702
   2   7
    -0.495741320930482    -0.963621580351940     0.000000000000000
    -0.119121616458130    -1.120863397073812     0.000000000000000
     0.000000000000000     0.000000000000000    -0.108572157951702
   2   8
    -0.495741320931317     0.963621580352562    -0.000000000000000
     0.119121616459211    -1.120863397073876     0.000000000000000
     0.000000000000000    -0.000000000000000    -0.108572157951702
   2   9
    -0.069352736190478     0.000000000000096     0.000000000000000
     0.000000000000096    -0.069352736190667    -0.000000000000000
     0.000000000000000    -0.000000000000000    -0.155397768288628
   2  10
    -0.185833400481474    -0.071047006860120     0.000000000000000
     0.071047006860201     0.037116596091373     0.000000000000000
     0.000000000000000     0.000000000000000     0.035151218374024
   2  11
     0.375713248596801    -0.000000000000208     0.000000000000000
    -0.000000000000208     0.375713248597542     0.000000000000000
     0.000000000000000    -0.000000000000000    -1.145119653252777
   2  12
    -0.185833400481222     0.071047006860313     0.000000000000000
    -0.071047006860348     0.037116596091345    -0.000000000000000
     0.000000000000000    -0.000000000000000     0.035151218374024
   2  13
     0.043343983584177    -0.000000000000048     0.000000000000000
    -0.000000000000048     0.043343983583962    -0.000000000000000
     0.000000000000000    -0.000000000000000     0.000653243875247
   2  14
    -0.018620903051707     0.167587187263429     0.000000000000000
     0.025493173542964    -0.130095901338853     0.000000000000000
     0.000000000000000    -0.000000000000000     0.035151218374024
   2  15
    -0.018620903051808    -0.167587187263204     0.000000000000000
    -0.025493173542636    -0.130095901338546     0.000000000000000
     0.000000000000000     0.000000000000000     0.035151218374024
   2  16
    -0.018620903051788    -0.025493173542662     0.000000000000000
    -0.167587187262929    -0.130095901338431     0.000000000000000
     0.000000000000000     0.000000000000000     0.035151218374024
   2  17
    -0.018620903051798     0.025493173542863     0.000000000000000
     0.167587187263138    -0.130095901338536     0.000000000000000
     0.000000000000000     0.000000000000000     0.035151218374024
   2  18
     0.043343983584078     0.000000000000046     0.000000000000000
     0.000000000000046     0.043343983584061    -0.000000000000000
     0.000000000000000    -0.000000000000000     0.000653243875247
   2  19
    -0.496788263800992     0.335690967333820     0.729965764290828
     0.335690967333153    -0.109165723092656    -0.421445930512522
     0.729965764290456    -0.421445930513167    -0.879590477742933
   2  20
    -0.496788263800742    -0.335690967333278    -0.729965764290829
    -0.335690967332943    -0.109165723092413    -0.421445930512521
    -0.729965764290085    -0.421445930512520    -0.879590477742933
   2  21
     0.045623341157524     0.000000000000194    -0.000000000000009
     0.000000000000162    -0.101055332263636     0.021345966960327
    -0.000000000000009     0.021345966960327     0.045297577106683
   2  22
    -0.064385663908140    -0.063513728687832    -0.018486149655973
    -0.063513728687829     0.008953672802225    -0.010672983480156
    -0.018486149655954    -0.010672983480156     0.045297577106683
   2  23
     0.257663268963808    -0.000000000000054     0.000000000000047
     0.000000000000017     0.141451831159585     0.106562578360319
    -0.000000000000047     0.106562578360319     0.152736298611006
   2  24
    -0.064385663907975     0.063513728688062     0.018486149655963
     0.063513728688080     0.008953672802032    -0.010672983480172
     0.018486149655963    -0.010672983480172     0.045297577106683
   2  25
     0.084645547261981    -0.000000000000333     0.000000000000371
     0.000000000000264    -0.690599534156914     0.842891861025688
    -0.000000000000371     0.842891861025688    -0.879590477742933
   2  26
     0.170504690610490     0.050321028674518     0.092285899952688
     0.050321028674483     0.228610409513041    -0.053281289180200
     0.092285899952688    -0.053281289180200     0.152736298611006
   2  27
     0.170504690610567    -0.050321028674504    -0.092285899952688
    -0.050321028674562     0.228610409513106    -0.053281289180200
    -0.092285899952641    -0.053281289180118     0.152736298611006
   2  28
    -0.496788263800992     0.335690967333820    -0.729965764290828
     0.335690967333153    -0.109165723092656     0.421445930512522
    -0.729965764290456     0.421445930513167    -0.879590477742933
   2  29
    -0.496788263800742    -0.335690967333278     0.729965764290829
    -0.335690967332944    -0.109165723092413     0.421445930512521
     0.729965764290085     0.421445930512520    -0.879590477742934
   2  30
     0.045623341157524     0.000000000000194     0.000000000000009
     0.000000000000162    -0.101055332263636    -0.021345966960327
     0.000000000000009    -0.021345966960327     0.045297577106683
   2  31
    -0.064385663908140    -0.063513728687832     0.018486149655973
    -0.063513728687829     0.008953672802225     0.010672983480156
     0.018486149655954     0.010672983480156     0.045297577106683
   2  32
     0.257663268963808    -0.000000000000054    -0.000000000000047
     0.000000000000017     0.141451831159585    -0.106562578360319
     0.000000000000047    -0.106562578360319     0.152736298611006
   2  33
    -0.064385663907975     0.063513728688062    -0.018486149655963
     0.063513728688080     0.008953672802032     0.010672983480172
    -0.018486149655963     0.010672983480172     0.045297577106683
   2  34
     0.084645547261981    -0.000000000000333    -0.000000000000371
     0.000000000000264    -0.690599534156914    -0.842891861025688
     0.000000000000371    -0.842891861025688    -0.879590477742933
   2  35
     0.170504690610490     0.050321028674518    -0.092285899952688
     0.050321028674483     0.228610409513041     0.053281289180200
    -0.092285899952688     0.053281289180200     0.152736298611006
   2  36
     0.170504690610567    -0.050321028674504     0.092285899952688
    -0.050321028674562     0.228610409513106     0.053281289180200
     0.092285899952641     0.053281289180118     0.152736298611006
   3   1
    -1.433424435142935    -0.422249981947478    -0.000000000000000
     0.422249981945964    -0.183180282860495     0.000000000000000
     0.000000000000000     0.000000000000000    -0.108572157951702
   3   2
    -1.433424435141041     0.422249981945786     0.000000000000000
    -0.422249981945816    -0.183180282861335     0.000000000000000
     0.000000000000000    -0.000000000000000    -0.108572157951702
   3   3
     5.759081457419923     0.000000000004910    -0.000000000000000
     0.000000000004910     5.759081457437204     0.000000000000000
    -0.000000000000000     0.000000000000000     5.984473951697075
   3   4
    -0.495741320930875    -0.119121616459696     0.000000000000000
    -0.963621580352400    -1.120863397075329    -0.000000000000000
     0.000000000000000    -0.000000000000000    -0.108572157951702
   3   5
    -0.069352736190327     0.000000000000029     0.000000000000000
     0.000000000000029    -0.069352736190907     0.000000000000000
     0.000000000000000     0.000000000000000    -0.155397768288628
   3   6
    -0.495741320930968     0.119121616458517    -0.000000000000000
     0.963621580350255    -1.120863397073505     0.000000000000000
     0.000000000000000    -0.000000000000000    -0.108572157951702
   3   7
    -0.069352736190544    -0.000000000000094     0.000000000000000
    -0.000000000000094    -0.069352736190690     0.000000000000000
    -0.000000000000000     0.000000000000000    -0.155397768288628
   3   8
    -0.495741320931353    -0.963621580352604     0.000000000000000
    -0.119121616459207    -1.120863397073883     0.000000000000000
     0.000000000000000     0.000000000000000    -0.108572157951702
   3   9
    -0.495741320930484     0.963621580351943     0.000000000000000
     0.119121616458133    -1.120863397073814    -0.000000000000000
     0.000000000000000    -0.000000000000000    -0.108572157951702
   3  10
    -0.185833400481507     0.071047006860033     0.000000000000000
    -0.071047006860149     0.037116596091363     0.000000000000000
     0.000000000000000    -0.000000000000000     0.035151218374024
   3  11
    -0.185833400481222    -0.071047006860348     0.000000000000000
     0.071047006860313     0.037116596091345     0.000000000000000
     0.000000000000000    -0.000000000000000     0.035151218374024
   3  12
     0.375713248596734     0.000000000000172     0.000000000000000
     0.000000000000172     0.375713248597521    -0.000000000000000
     0.000000000000000    -0.000000000000000    -1.145119653252777
   3  13
    -0.018620903051739    -0.167587187263447     0.000000000000000
    -0.025493173542983    -0.130095901338820    -0.000000000000000
     0.000000000000000    -0.000000000000000     0.035151218374024
   3  14
     0.043343983584142     0.000000000000029     0.000000000000000
     0.000000000000029     0.043343983583908     0.000000000000000
     0.000000000000000     0.000000000000000     0.000653243875247
   3  15
    -0.018620903051842     0.167587187263165     0.000000000000000
     0.025493173542639    -0.130095901338557     0.000000000000000
    -0.000000000000000     0.000000000000000     0.035151218374024
   3  16
     0.043343983584012    -0.000000000000045     0.000000000000000
    -0.000000000000045     0.043343983584038     0.000000000000000
    -0.000000000000000     0.000000000000000     0.000653243875247
   3  17
    -0.018620903051832    -0.025493173542905     0.000000000000000
    -0.167587187263132    -0.130095901338546     0.000000000000000
     0.000000000000000     0.000000000000000     0.035151218374024
   3  18
    -0.018620903051790     0.025493173542664     0.000000000000000
     0.167587187262930    -0.130095901338429    -0.000000000000000
     0.000000000000000    -0.000000000000000     0.035151218374024
   3  19
     0.045623341157389    -0.000000000000120     0.000000000000000
    -0.000000000000090    -0.101055332263433     0.021345966960311
     0.000000000000009     0.021345966960327     0.045297577106683
   3  20
    -0.496788263800775     0.335690967333225     0.729965764290828
     0.335690967332951    -0.109165723092425    -0.421445930512522
     0.729965764290084    -0.421445930512523    -0.879590477742933
   3  21
    -0.496788263800363    -0.335690967333483    -0.729965764290085
    -0.335690967333097    -0.109165723092735    -0.421445930512519
    -0.729965764290456    -0.421445930513164    -0.879590477742933
   3  22
    -0.064385663908174     0.063513728687832     0.018486149655973
     0.063513728687782     0.008953672802214    -0.010672983480156
     0.018486149655954    -0.010672983480156     0.045297577106683
   3  23
    -0.064385663908003    -0.063513728688107    -0.018486149655963
    -0.063513728688063     0.008953672802016    -0.010672983480172
    -0.018486149655963    -0.010672983480172     0.045297577106683
   3  24
     0.257663268963769     0.000000000000007    -0.000000000000047
    -0.000000000000001     0.141451831159580     0.106562578360318
     0.000000000000047     0.106562578360318     0.152736298611006
   3  25
     0.170504690610461    -0.050321028674510    -0.092285899952688
    -0.050321028674521     0.228610409513026    -0.053281289180200
    -0.092285899952688    -0.053281289180200     0.152736298611006
   3  26
     0.084645547261942     0.000000000000342    -0.000000000000372
    -0.000000000000302    -0.690599534156917     0.842891861025686
     0.000000000000372     0.842891861025687    -0.879590477742933
   3  27
     0.170504690610578     0.050321028674499     0.092285899952641
     0.050321028674568     0.228610409513139    -0.053281289180119
     0.092285899952641    -0.053281289180119     0.152736298611006
   3  28
     0.045623341157389    -0.000000000000120    -0.000000000000000
    -0.000000000000090    -0.101055332263433    -0.021345966960311
    -0.000000000000009    -0.021345966960327     0.045297577106683
   3  29
    -0.496788263800775     0.335690967333225    -0.729965764290828
     0.335690967332951    -0.109165723092425     0.421445930512522
    -0.729965764290084     0.421445930512523    -0.879590477742933
   3  30
    -0.496788263800363    -0.335690967333483     0.729965764290085
    -0.335690967333097    -0.109165723092735     0.421445930512519
     0.729965764290457     0.421445930513164    -0.879590477742933
   3  31
    -0.064385663908174     0.063513728687832    -0.018486149655973
     0.063513728687782     0.008953672802214     0.010672983480156
    -0.018486149655954     0.010672983480156     0.045297577106683
   3  32
    -0.064385663908003    -0.063513728688107     0.018486149655963
    -0.063513728688063     0.008953672802016     0.010672983480172
     0.018486149655963     0.010672983480172     0.045297577106683
   3  33
     0.257663268963769     0.000000000000007     0.000000000000047
    -0.000000000000001     0.141451831159580    -0.106562578360318
    -0.000000000000047    -0.106562578360318     0.152736298611006
   3  34
     0.170504690610461    -0.050321028674510     0.092285899952688
    -0.050321028674521     0.228610409513026     0.053281289180200
     0.092285899952688     0.053281289180200     0.152736298611006
   3  35
     0.084645547261942     0.000000000000342     0.000000000000372
    -0.000000000000302    -0.690599534156917    -0.842891861025686
    -0.000000000000372    -0.842891861025687    -0.879590477742933
   3  36
     0.170504690610578     0.050321028674499    -0.092285899952641
     0.050321028674568     0.228610409513139     0.053281289180119
    -0.092285899952641     0.053281289180119     0.152736298611006
   4   1
    -0.495741320930553     0.963621580351929    -0.000000000000000
     0.119121616458073    -1.120863397073790     0.000000000000000
    -0.000000000000000    -0.000000000000000    -0.108572157951702
   4   2
    -0.069352736190293    -0.000000000000048     0.000000000000000
    -0.000000000000048    -0.069352736190853    -0.000000000000000
     0.000000000000000    -0.000000000000000    -0.155397768288628
   4   3
    -0.495741320930875    -0.963621580352400     0.000000000000000
    -0.119121616459696    -1.120863397075329    -0.000000000000000
     0.000000000000000    -0.000000000000000    -0.108572157951702
   4   4
     5.759081457419954     0.000000000004865    -0.000000000000000
     0.000000000004865     5.759081457437260     0.000000000000000
    -0.000000000000000     0.000000000000000     5.984473951697076
   4   5
    -1.433424435141824    -0.422249981946904     0.000000000000000
     0.422249981946907    -0.183180282860559    -0.000000000000000
     0.000000000000000     0.000000000000000    -0.108572157951702
   4   6
    -1.433424435142605     0.422249981945981    -0.000000000000000
    -0.422249981946268    -0.183180282860867    -0.000000000000000
     0.000000000000000    -0.000000000000000    -0.108572157951702
   4   7
    -0.495741320930885     0.119121616458570    -0.000000000000000
     0.963621580350173    -1.120863397073407     0.000000000000000
     0.000000000000000    -0.000000000000000    -0.108572157951702
   4   8
    -0.495741320930979    -0.119121616459167    -0.000000000000000
    -0.963621580351414    -1.120863397074212     0.000000000000000
    -0.000000000000000    -0.000000000000000    -0.108572157951702
   4   9
    -0.069352736190510    -0.000000000000137     0.000000000000000
    -0.000000000000137    -0.069352736190636    -0.000000000000000
     0.000000000000000    -0.000000000000000    -0.155397768288628
   4  10
    -0.018620903051860     0.025493173542652    -0.000000000000000
     0.167587187262875    -0.130095901338410     0.000000000000000
     0.000000000000000    -0.000000000000000     0.035151218374024
   4  11
     0.043343983584177    -0.000000000000048     0.000000000000000
    -0.000000000000048     0.043343983583962    -0.000000000000000
     0.000000000000000    -0.000000000000000     0.000653243875247
   4  12
    -0.018620903051739    -0.025493173542983     0.000000000000000
    -0.167587187263447    -0.130095901338820    -0.000000000000000
     0.000000000000000    -0.000000000000000     0.035151218374024
   4  13
     0.375713248596740     0.000000000000113     0.000000000000000
     0.000000000000113     0.375713248597603    -0.000000000000000
     0.000000000000000    -0.000000000000000    -1.145119653252777
   4  14
    -0.185833400481127     0.071047006860133     0.000000000000000
    -0.071047006860134     0.037116596091249    -0.000000000000000
     0.000000000000000    -0.000000000000000     0.035151218374024
   4  15
    -0.185833400481610    -0.071047006860432    -0.000000000000000
     0.071047006860038     0.037116596091426    -0.000000000000000
     0.000000000000000     0.000000000000000     0.035151218374024
   4  16
    -0.018620903051756     0.167587187263218    -0.000000000000000
     0.025493173542558    -0.130095901338462    -0.000000000000000
    -0.000000000000000    -0.000000000000000     0.035151218374024
   4  17
    -0.018620903051892    -0.167587187263393     0.000000000000000
    -0.025493173542921    -0.130095901338441    -0.000000000000000
     0.000000000000000    -0.000000000000000     0.035151218374024
   4  18
     0.043343983584046    -0.000000000000087     0.000000000000000
    -0.000000000000087     0.043343983584093    -0.000000000000000
     0.000000000000000    -0.000000000000000     0.000653243875247
   4  19
     0.170504690610552     0.050321028674497     0.092285899952735
     0.050321028674465     0.228610409513164    -0.053281289180118
     0.092285899952641    -0.053281289180118     0.152736298611006
   4  20
     0.170504690610462    -0.050321028674588    -0.092285899952735
    -0.050321028674492     0.228610409513066    -0.053281289180118
    -0.092285899952688    -0.053281289180200     0.152736298611006
   4  21
     0.084645547261977     0.000000000000341    -0.000000000000373
    -0.000000000000377    -0.690599534156809     0.842891861025686
     0.000000000000373     0.842891861025686    -0.879590477742933
   4  22
    -0.496788263801111    -0.335690967333861    -0.729965764290829
    -0.335690967333239    -0.109165723092679    -0.421445930512521
    -0.729965764290458    -0.421445930513164    -0.879590477742933
   4  23
     0.045623341157477    -0.000000000000198     0.000000000000009
    -0.000000000000230    -0.101055332263645     0.021345966960327
     0.000000000000009     0.021345966960327     0.045297577106683
   4  24
    -0.496788263800383     0.335690967333098     0.729965764290458
     0.335690967333458    -0.109165723092731    -0.421445930513166
     0.729965764290085    -0.421445930512522    -0.879590477742934
   4  25
     0.257663268963767     0.000000000000013     0.000000000000047
    -0.000000000000073     0.141451831159586     0.106562578360318
     0.000000000000047     0.106562578360318     0.152736298611006
   4  26
    -0.064385663907962     0.063513728687877     0.018486149655963
     0.063513728687906     0.008953672802090    -0.010672983480172
     0.018486149655954    -0.010672983480156     0.045297577106683
   4  27
    -0.064385663907984    -0.063513728688110    -0.018486149655963
    -0.063513728688118     0.008953672802053    -0.010672983480172
    -0.018486149655963    -0.010672983480172     0.045297577106683
   4  28
     0.170504690610552     0.050321028674497    -0.092285899952735
     0.050321028674465     0.228610409513164     0.053281289180118
    -0.092285899952641     0.053281289180118     0.152736298611006
   4  29
     0.170504690610462    -0.050321028674588     0.092285899952735
    -0.050321028674492     0.228610409513066     0.053281289180118
     0.092285899952688     0.053281289180200     0.152736298611006
   4  30
     0.084645547261977     0.000000000000341     0.000000000000373
    -0.000000000000377    -0.690599534156809    -0.842891861025686
    -0.000000000000373    -0.842891861025686    -0.879590477742933
   4  31
    -0.496788263801111    -0.335690967333861     0.729965764290830
    -0.335690967333239    -0.109165723092679     0.421445930512521
     0.729965764290458     0.421445930513164    -0.879590477742933
   4  32
     0.045623341157477    -0.000000000000198    -0.000000000000009
    -0.000000000000230    -0.101055332263645    -0.021345966960327
    -0.000000000000009    -0.021345966960327     0.045297577106683
   4  33
    -0.496788263800383     0.335690967333098    -0.729965764290458
     0.335690967333458    -0.109165723092731     0.421445930513166
    -0.729965764290085     0.421445930512522    -0.879590477742933
   4  34
     0.257663268963767     0.000000000000013    -0.000000000000047
    -0.000000000000073     0.141451831159586    -0.106562578360318
    -0.000000000000047    -0.106562578360318     0.152736298611006
   4  35
    -0.064385663907962     0.063513728687877    -0.018486149655963
     0.063513728687906     0.008953672802090     0.010672983480172