36   
1    

1    
  0.0203832117260690   0.0000000000000000   0.0220119213093779
  -0.1173885788    0.0002991297   -0.1317297701
   0.0299552942    0.0087522295    0.0025223784
   0.0284848110   -0.0084664418    0.0022588311
   0.0100848785   -0.0025315533    0.0023014164
   0.0101239230    0.0023232259    0.0024769404
   0.0014129056    0.0000448570    0.0034232601
   0.0100810195   -0.0197673673    0.0024341583
   0.0014143583   -0.0000769251    0.0034179473
   0.0101248637    0.0195096029    0.0023455662
  -0.0076582438   -0.0000180158    0.0252062842
   0.0037406113   -0.0014570776   -0.0009042364
   0.0038355153    0.0014330104   -0.0006413158
   0.0003937686   -0.0034563551   -0.0007150231
   0.0003705271    0.0033783853   -0.0008363029
  -0.0008905862    0.0000490321   -0.0000151902
   0.0003674874   -0.0004873455   -0.0008436031
  -0.0008763932   -0.0000120044   -0.0000135686
   0.0003860700    0.0005484835   -0.0007019938
   0.0273544811    0.0166955655    0.0359969386
  -0.0008995644   -0.0004673422   -0.0010304146
  -0.0060973775    0.0025530557    0.0042049979
  -0.0051481025   -0.0024439844   -0.0034166303
   0.0008562606   -0.0010341953   -0.0014642528
   0.0016655363    0.0014615153   -0.0006340452
  -0.0057265863    0.0002558991   -0.0053856372
  -0.0013916694    0.0020923579   -0.0014129567
  -0.0016228281   -0.0191461795    0.0200358282
  -0.0057795049   -0.0023172548    0.0047635200
  -0.0009598080    0.0004672481   -0.0009604650
   0.0250295552   -0.0155400927    0.0325043504
  -0.0053549256    0.0022657915   -0.0033148989
   0.0017735811   -0.0015957173   -0.0006065284
   0.0009536427    0.0010879371   -0.0012868143
  -0.0015039652   -0.0023038952   -0.0015464028
  -0.0052804931   -0.0000358348   -0.0050955904
  -0.0018304636    0.0179402555    0.0186632232