  36   36
   1   1
     5.759081560590584     0.000000000000005     0.000000000000000
     0.000000000000005     5.759081560590920    -0.000000000000000
     0.000000000000000    -0.000000000000000     5.984473969869049
   1   2
    -1.433424486912708    -0.422249962321917     0.000000000000000
     0.422249962323402    -0.183180250442115     0.000000000000000
    -0.000000000000000    -0.000000000000000    -0.108572157951703
   1   3
    -1.433424486912742     0.422249962321971     0.000000000000000
    -0.422249962323485    -0.183180250442126     0.000000000000000
    -0.000000000000000     0.000000000000000    -0.108572157951703
   1   4
    -0.495741309559227     0.119121672536615     0.000000000000000
     0.963621597182485    -1.120863427796552    -0.000000000000000
    -0.000000000000000     0.000000000000000    -0.108572157951703
   1   5
    -0.495741309559230    -0.119121672536548     0.000000000000000
    -0.963621597182557    -1.120863427796593     0.000000000000000
     0.000000000000000     0.000000000000000    -0.108572157951703
   1   6
    -0.069352758131598     0.000000000000024    -0.000000000000000
    -0.000000000000025    -0.069352758131253     0.000000000000000
    -0.000000000000000     0.000000000000000    -0.155397779646110
   1   7
    -0.495741309560195     0.963621597182162    -0.000000000000000
     0.119121672537256    -1.120863427795629     0.000000000000000
    -0.000000000000000     0.000000000000000    -0.108572157951702
   1   8
    -0.069352758131502     0.000000000000023    -0.000000000000000
    -0.000000000000024    -0.069352758131157     0.000000000000000
    -0.000000000000000     0.000000000000000    -0.155397779646110
   1   9
    -0.495741309560166    -0.963621597182074    -0.000000000000000
    -0.119121672537308    -1.120863427795612    -0.000000000000000
    -0.000000000000000     0.000000000000000    -0.108572157951703
   1  10
     0.375713302699161    -0.000000000000000    -0.000000000000000
    -0.000000000000000     0.375713302699505    -0.000000000000000
    -0.000000000000000    -0.000000000000000    -1.145119675967741
   1  11
    -0.185833429284293     0.071047025666527     0.000000000000000
    -0.071047025666447     0.037116602272090     0.000000000000000
    -0.000000000000000     0.000000000000000     0.035151218374024
   1  12
    -0.185833429284327    -0.071047025666475     0.000000000000000
     0.071047025666359     0.037116602272080     0.000000000000000
    -0.000000000000000    -0.000000000000000     0.035151218374024
   1  13
    -0.018620905617028     0.167587221217517     0.000000000000000
     0.025493169884641    -0.130095921395346    -0.000000000000000
    -0.000000000000000     0.000000000000000     0.035151218374024
   1  14
    -0.018620905617029    -0.167587221217448     0.000000000000000
    -0.025493169884713    -0.130095921395389     0.000000000000000
    -0.000000000000000    -0.000000000000000     0.035151218374024
   1  15
     0.043343988626035     0.000000000000024    -0.000000000000000
    -0.000000000000025     0.043343988626379     0.000000000000000
    -0.000000000000000     0.000000000000000     0.000653255232729
   1  16
    -0.018620905617218     0.025493169884825    -0.000000000000000
     0.167587221217758    -0.130095921395200     0.000000000000000
    -0.000000000000000     0.000000000000000     0.035151218374024
   1  17
     0.043343988626131     0.000000000000023    -0.000000000000000
    -0.000000000000024     0.043343988626475     0.000000000000000
    -0.000000000000000     0.000000000000000     0.000653255232729
   1  18
    -0.018620905617186    -0.025493169884736    -0.000000000000000
    -0.167587221217809    -0.130095921395187    -0.000000000000000
     0.000000000000000    -0.000000000000000     0.035151218374024
   1  19
    -0.496788243383913    -0.335690974692307    -0.729965801695300
    -0.335690974692321    -0.109165694177294    -0.421445952108001
    -0.729965801695300    -0.421445952108001    -0.879590477742933
   1  20
     0.045623298344481     0.000000000000016     0.000000000000000
    -0.000000000000023    -0.101055326790662     0.021345943923085
     0.000000000000000     0.021345943923085     0.045297577863848
   1  21
    -0.496788243383545     0.335690974692217     0.729965801694927
     0.335690974692837    -0.109165694177664    -0.421445952108647
     0.729965801695299    -0.421445952108003    -0.879590477742933
   1  22
     0.257663279502743     0.000000000000043     0.000000000000000
    -0.000000000000050     0.141451809445874     0.106562560327512
     0.000000000000000     0.106562560327512     0.152736298611006
   1  23
    -0.064385670506898     0.063513707779665     0.018486129705130
     0.063513707779665     0.008953642060873    -0.010672971961542
     0.018486129705149    -0.010672971961542     0.045297577863848
   1  24
    -0.064385670506904    -0.063513707779623    -0.018486129705130
    -0.063513707779701     0.008953642060879    -0.010672971961542
    -0.018486129705149    -0.010672971961542     0.045297577863848
   1  25
     0.170504676959884     0.050321042640386     0.092285884335843
     0.050321042640319     0.228610411988866    -0.053281280163756
     0.092285884335937    -0.053281280163756     0.152736298611006
   1  26
     0.170504676959879    -0.050321042640290    -0.092285884335843
    -0.050321042640409     0.228610411988871    -0.053281280163756
    -0.092285884335937    -0.053281280163756     0.152736298611006
   1  27
     0.084645580425543    -0.000000000000365     0.000000000000372
    -0.000000000000062    -0.690599517987388     0.842891904216649
     0.000000000000001     0.842891904216004    -0.879590477742933
   1  28
    -0.496788243383913    -0.335690974692307     0.729965801695299
    -0.335690974692321    -0.109165694177294     0.421445952108001
     0.729965801695300     0.421445952108001    -0.879590477742933
   1  29
     0.045623298344481     0.000000000000016    -0.000000000000000
    -0.000000000000023    -0.101055326790662    -0.021345943923085
    -0.000000000000000    -0.021345943923085     0.045297577863848
   1  30
    -0.496788243383545     0.335690974692217    -0.729965801694927
     0.335690974692837    -0.109165694177664     0.421445952108647
    -0.729965801695299     0.421445952108003    -0.879590477742933
   1  31
     0.257663279502743     0.000000000000043    -0.000000000000000
    -0.000000000000050     0.141451809445874    -0.106562560327512
    -0.000000000000000    -0.106562560327512     0.152736298611006
   1  32
    -0.064385670506898     0.063513707779665    -0.018486129705130
     0.063513707779665     0.008953642060873     0.010672971961542
    -0.018486129705149     0.010672971961542     0.045297577863848
   1  33
    -0.064385670506904    -0.063513707779623     0.018486129705130
    -0.063513707779701     0.008953642060879     0.010672971961542
     0.018486129705149     0.010672971961542     0.045297577863848
   1  34
     0.170504676959884     0.050321042640386    -0.092285884335843
     0.050321042640319     0.228610411988866     0.053281280163756
    -0.092285884335937     0.053281280163756     0.152736298611006
   1  35
     0.170504676959879    -0.050321042640290     0.092285884335843
    -0.050321042640409     0.228610411988871     0.053281280163756
     0.092285884335937     0.053281280163756     0.152736298611006
   1  36
     0.084645580425543    -0.000000000000365    -0.000000000000372
    -0.000000000000062    -0.690599517987388    -0.842891904216649
    -0.000000000000001    -0.842891904216004    -0.879590477742933
   2   1
    -1.433424486912708     0.422249962323402    -0.000000000000000
    -0.422249962321917    -0.183180250442115    -0.000000000000000
     0.000000000000000     0.000000000000000    -0.108572157951703
   2   2
     5.759081560582229    -0.000000000004966    -0.000000000000000
    -0.000000000004966     5.759081560599467     0.000000000000000
    -0.000000000000000     0.000000000000000     5.984473969869049
   2   3
    -1.433424486910847    -0.422249962321823     0.000000000000000
     0.422249962321794    -0.183180250442966    -0.000000000000000
     0.000000000000000     0.000000000000000    -0.108572157951702
   2   4
    -0.069352758131007    -0.000000000000048     0.000000000000000
    -0.000000000000048    -0.069352758131567    -0.000000000000000
     0.000000000000000    -0.000000000000000    -0.155397779646110
   2   5
    -0.495741309559517     0.119121672538221     0.000000000000000
     0.963621597182940    -1.120863427798128     0.000000000000000
     0.000000000000000     0.000000000000000    -0.108572157951703
   2   6
    -0.495741309559611    -0.119121672537099     0.000000000000000
    -0.963621597180810    -1.120863427796253     0.000000000000000
     0.000000000000000     0.000000000000000    -0.108572157951703
   2   7
    -0.495741309559156    -0.963621597182496     0.000000000000000
    -0.119121672536672    -1.120863427796575     0.000000000000000
     0.000000000000000     0.000000000000000    -0.108572157951703
   2   8
    -0.495741309559992     0.963621597183119    -0.000000000000000
     0.119121672537754    -1.120863427796638     0.000000000000000
     0.000000000000000    -0.000000000000000    -0.108572157951703
   2   9
    -0.069352758131193     0.000000000000096     0.000000000000000
     0.000000000000096    -0.069352758131381    -0.000000000000000
     0.000000000000000    -0.000000000000000    -0.155397779646110
   2  10
    -0.185833429284293    -0.071047025666447    -0.000000000000000
     0.071047025666527     0.037116602272090     0.000000000000000
     0.000000000000000     0.000000000000000     0.035151218374024
   2  11
     0.375713302699059    -0.000000000000208     0.000000000000000
    -0.000000000000208     0.375713302699800    -0.000000000000000
     0.000000000000000    -0.000000000000000    -1.145119675967741
   2  12
    -0.185833429284041     0.071047025666639     0.000000000000000
    -0.071047025666674     0.037116602272062     0.000000000000000
     0.000000000000000    -0.000000000000000     0.035151218374024
   2  13
     0.043343988626453    -0.000000000000048     0.000000000000000
    -0.000000000000048     0.043343988626238    -0.000000000000000
     0.000000000000000    -0.000000000000000     0.000653255232729
   2  14
    -0.018620905616874     0.167587221218071     0.000000000000000
     0.025493169884954    -0.130095921395789     0.000000000000000
     0.000000000000000    -0.000000000000000     0.035151218374024
   2  15
    -0.018620905616976    -0.167587221217846     0.000000000000000
    -0.025493169884625    -0.130095921395481     0.000000000000000
     0.000000000000000     0.000000000000000     0.035151218374024
   2  16
    -0.018620905616956    -0.025493169884651    -0.000000000000000
    -0.167587221217571    -0.130095921395366     0.000000000000000
     0.000000000000000     0.000000000000000     0.035151218374024
   2  17
    -0.018620905616965     0.025493169884852    -0.000000000000000
     0.167587221217780    -0.130095921395472     0.000000000000000
     0.000000000000000     0.000000000000000     0.035151218374024
   2  18
     0.043343988626354     0.000000000000046    -0.000000000000000
     0.000000000000046     0.043343988626337    -0.000000000000000
     0.000000000000000    -0.000000000000000     0.000653255232729
   2  19
    -0.496788243383442     0.335690974692817     0.729965801695298
     0.335690974692150    -0.109165694177668    -0.421445952108002
     0.729965801694926    -0.421445952108648    -0.879590477742933
   2  20
    -0.496788243383193    -0.335690974692275    -0.729965801695298
    -0.335690974691941    -0.109165694177425    -0.421445952108002
    -0.729965801694555    -0.421445952108001    -0.879590477742933
   2  21
     0.045623298344830     0.000000000000194    -0.000000000000009
     0.000000000000162    -0.101055326791039     0.021345943923101
    -0.000000000000009     0.021345943923101     0.045297577863848
   2  22
    -0.064385670506866    -0.063513707779688    -0.018486129705149
    -0.063513707779684     0.008953642060853    -0.010672971961542
    -0.018486129705130    -0.010672971961542     0.045297577863848
   2  23
     0.257663279502791    -0.000000000000054     0.000000000000047
     0.000000000000017     0.141451809445829     0.106562560327594
    -0.000000000000047     0.106562560327594     0.152736298611006
   2  24
    -0.064385670506701     0.063513707779918     0.018486129705140
     0.063513707779936     0.008953642060660    -0.010672971961559
     0.018486129705140    -0.010672971961559     0.045297577863848
   2  25
     0.084645580425688    -0.000000000000333     0.000000000000371
     0.000000000000264    -0.690599517988083     0.842891904216649
    -0.000000000000371     0.842891904216649    -0.879590477742933
   2  26
     0.170504676959918     0.050321042640364     0.092285884335890
     0.050321042640328     0.228610411988839    -0.053281280163838
     0.092285884335890    -0.053281280163838     0.152736298611006
   2  27
     0.170504676959995    -0.050321042640349    -0.092285884335890
    -0.050321042640407     0.228610411988903    -0.053281280163837
    -0.092285884335843    -0.053281280163756     0.152736298611006
   2  28
    -0.496788243383442     0.335690974692817    -0.729965801695298
     0.335690974692150    -0.109165694177668     0.421445952108002
    -0.729965801694926     0.421445952108648    -0.879590477742934
   2  29
    -0.496788243383193    -0.335690974692275     0.729965801695299
    -0.335690974691941    -0.109165694177425     0.421445952108002
     0.729965801694555     0.421445952108001    -0.879590477742933
   2  30
     0.045623298344830     0.000000000000194     0.000000000000009
     0.000000000000162    -0.101055326791039    -0.021345943923101
     0.000000000000009    -0.021345943923101     0.045297577863848
   2  31
    -0.064385670506866    -0.063513707779688     0.018486129705149
    -0.063513707779684     0.008953642060853     0.010672971961542
     0.018486129705130     0.010672971961542     0.045297577863848
   2  32
     0.257663279502791    -0.000000000000054    -0.000000000000047
     0.000000000000017     0.141451809445829    -0.106562560327594
     0.000000000000047    -0.106562560327594     0.152736298611006
   2  33
    -0.064385670506701     0.063513707779918    -0.018486129705140
     0.063513707779936     0.008953642060660     0.010672971961559
    -0.018486129705140     0.010672971961559     0.045297577863848
   2  34
     0.084645580425688    -0.000000000000333    -0.000000000000371
     0.000000000000264    -0.690599517988083    -0.842891904216649
     0.000000000000371    -0.842891904216649    -0.879590477742933
   2  35
     0.170504676959918     0.050321042640364    -0.092285884335890
     0.050321042640328     0.228610411988839     0.053281280163838
    -0.092285884335890     0.053281280163838     0.152736298611006
   2  36
     0.170504676959995    -0.050321042640349     0.092285884335890
    -0.050321042640407     0.228610411988903     0.053281280163837
     0.092285884335843     0.053281280163756     0.152736298611006
   3   1
    -1.433424486912742    -0.422249962323485    -0.000000000000000
     0.422249962321971    -0.183180250442126     0.000000000000000
     0.000000000000000     0.000000000000000    -0.108572157951703
   3   2
    -1.433424486910847     0.422249962321794     0.000000000000000
    -0.422249962321823    -0.183180250442966     0.000000000000000
     0.000000000000000    -0.000000000000000    -0.108572157951702
   3   3
     5.759081560582160     0.000000000004910    -0.000000000000000
     0.000000000004910     5.759081560599444     0.000000000000000
    -0.000000000000000     0.000000000000000     5.984473969869049
   3   4
    -0.495741309559550    -0.119121672538238     0.000000000000000
    -0.963621597182956    -1.120863427798091    -0.000000000000000
     0.000000000000000    -0.000000000000000    -0.108572157951703
   3   5
    -0.069352758131042     0.000000000000029     0.000000000000000
     0.000000000000029    -0.069352758131621     0.000000000000000
     0.000000000000000     0.000000000000000    -0.155397779646110
   3   6
    -0.495741309559643     0.119121672537059    -0.000000000000000
     0.963621597180812    -1.120863427796267     0.000000000000000
     0.000000000000000    -0.000000000000000    -0.108572157951703
   3   7
    -0.069352758131258    -0.000000000000094    -0.000000000000000
    -0.000000000000094    -0.069352758131404    -0.000000000000000
     0.000000000000000     0.000000000000000    -0.155397779646110
   3   8
    -0.495741309560028    -0.963621597183161     0.000000000000000
    -0.119121672537749    -1.120863427796646     0.000000000000000
     0.000000000000000     0.000000000000000    -0.108572157951703
   3   9
    -0.495741309559158     0.963621597182500     0.000000000000000
     0.119121672536675    -1.120863427796576    -0.000000000000000
     0.000000000000000    -0.000000000000000    -0.108572157951703
   3  10
    -0.185833429284327     0.071047025666359    -0.000000000000000
    -0.071047025666475     0.037116602272080    -0.000000000000000
     0.000000000000000     0.000000000000000     0.035151218374024
   3  11
    -0.185833429284041    -0.071047025666674     0.000000000000000
     0.071047025666639     0.037116602272062    -0.000000000000000
     0.000000000000000     0.000000000000000     0.035151218374024
   3  12
     0.375713302698992     0.000000000000172     0.000000000000000
     0.000000000000172     0.375713302699779     0.000000000000000
     0.000000000000000     0.000000000000000    -1.145119675967741
   3  13
    -0.018620905616907    -0.167587221218089    -0.000000000000000
    -0.025493169884972    -0.130095921395755    -0.000000000000000
     0.000000000000000     0.000000000000000     0.035151218374024
   3  14
     0.043343988626418     0.000000000000029     0.000000000000000
     0.000000000000029     0.043343988626184    -0.000000000000000
     0.000000000000000     0.000000000000000     0.000653255232729
   3  15
    -0.018620905617009     0.167587221217807    -0.000000000000000
     0.025493169884629    -0.130095921395492    -0.000000000000000
     0.000000000000000     0.000000000000000     0.035151218374024
   3  16
     0.043343988626288    -0.000000000000045    -0.000000000000000
    -0.000000000000045     0.043343988626314    -0.000000000000000
     0.000000000000000     0.000000000000000     0.000653255232729
   3  17
    -0.018620905616999    -0.025493169884894    -0.000000000000000
    -0.167587221217774    -0.130095921395481    -0.000000000000000
     0.000000000000000     0.000000000000000     0.035151218374024
   3  18
    -0.018620905616958     0.025493169884653    -0.000000000000000
     0.167587221217572    -0.130095921395365    -0.000000000000000
     0.000000000000000    -0.000000000000000     0.035151218374024
   3  19
     0.045623298344695    -0.000000000000120     0.000000000000000
    -0.000000000000090    -0.101055326790836     0.021345943923085
     0.000000000000009     0.021345943923101     0.045297577863848
   3  20
    -0.496788243383225     0.335690974692222     0.729965801695298
     0.335690974691948    -0.109165694177437    -0.421445952108003
     0.729965801694554    -0.421445952108004    -0.879590477742934
   3  21
    -0.496788243382813    -0.335690974692480    -0.729965801694555
    -0.335690974692094    -0.109165694177747    -0.421445952108000
    -0.729965801694926    -0.421445952108644    -0.879590477742933
   3  22
    -0.064385670506900     0.063513707779687     0.018486129705149
     0.063513707779637     0.008953642060842    -0.010672971961542
     0.018486129705130    -0.010672971961542     0.045297577863848
   3  23
    -0.064385670506729    -0.063513707779962    -0.018486129705140
    -0.063513707779919     0.008953642060645    -0.010672971961559
    -0.018486129705140    -0.010672971961559     0.045297577863848
   3  24
     0.257663279502752     0.000000000000007    -0.000000000000047
    -0.000000000000001     0.141451809445824     0.106562560327593
     0.000000000000047     0.106562560327593     0.152736298611006
   3  25
     0.170504676959890    -0.050321042640356    -0.092285884335890
    -0.050321042640367     0.228610411988824    -0.053281280163837
    -0.092285884335890    -0.053281280163837     0.152736298611006
   3  26
     0.084645580425649     0.000000000000342    -0.000000000000372
    -0.000000000000302    -0.690599517988086     0.842891904216648
     0.000000000000372     0.842891904216649    -0.879590477742934
   3  27
     0.170504676960006     0.050321042640344     0.092285884335843
     0.050321042640413     0.228610411988937    -0.053281280163756
     0.092285884335843    -0.053281280163756     0.152736298611006
   3  28
     0.045623298344695    -0.000000000000120    -0.000000000000000
    -0.000000000000090    -0.101055326790836    -0.021345943923085
    -0.000000000000009    -0.021345943923101     0.045297577863848
   3  29
    -0.496788243383225     0.335690974692222    -0.729965801695298
     0.335690974691948    -0.109165694177437     0.421445952108003
    -0.729965801694554     0.421445952108004    -0.879590477742934
   3  30
    -0.496788243382813    -0.335690974692480     0.729965801694555
    -0.335690974692094    -0.109165694177747     0.421445952108000
     0.729965801694926     0.421445952108644    -0.879590477742933
   3  31
    -0.064385670506900     0.063513707779687    -0.018486129705149
     0.063513707779637     0.008953642060842     0.010672971961542
    -0.018486129705130     0.010672971961542     0.045297577863848
   3  32
    -0.064385670506729    -0.063513707779962     0.018486129705140
    -0.063513707779919     0.008953642060645     0.010672971961559
     0.018486129705140     0.010672971961559     0.045297577863848
   3  33
     0.257663279502752     0.000000000000007     0.000000000000047
    -0.000000000000001     0.141451809445824    -0.106562560327593
    -0.000000000000047    -0.106562560327593     0.152736298611006
   3  34
     0.170504676959890    -0.050321042640356     0.092285884335890
    -0.050321042640367     0.228610411988824     0.053281280163837
     0.092285884335890     0.053281280163837     0.152736298611006
   3  35
     0.084645580425649     0.000000000000342     0.000000000000372
    -0.000000000000302    -0.690599517988086    -0.842891904216648
    -0.000000000000372    -0.842891904216649    -0.879590477742934
   3  36
     0.170504676960006     0.050321042640344    -0.092285884335843
     0.050321042640413     0.228610411988937     0.053281280163756
    -0.092285884335843     0.053281280163756     0.152736298611006
   4   1
    -0.495741309559227     0.963621597182485    -0.000000000000000
     0.119121672536615    -1.120863427796552     0.000000000000000
     0.000000000000000    -0.000000000000000    -0.108572157951703
   4   2
    -0.069352758131007    -0.000000000000048     0.000000000000000
    -0.000000000000048    -0.069352758131567    -0.000000000000000
     0.000000000000000    -0.000000000000000    -0.155397779646110
   4   3
    -0.495741309559550    -0.963621597182956     0.000000000000000
    -0.119121672538238    -1.120863427798091    -0.000000000000000
     0.000000000000000    -0.000000000000000    -0.108572157951703
   4   4
     5.759081560582193     0.000000000004865    -0.000000000000000
     0.000000000004865     5.759081560599501     0.000000000000000
    -0.000000000000000     0.000000000000000     5.984473969869049
   4   5
    -1.433424486911630    -0.422249962322911     0.000000000000000
     0.422249962322914    -0.183180250442190    -0.000000000000000
     0.000000000000000     0.000000000000000    -0.108572157951703
   4   6
    -1.433424486912411     0.422249962321989    -0.000000000000000
    -0.422249962322275    -0.183180250442498    -0.000000000000000
     0.000000000000000     0.000000000000000    -0.108572157951703
   4   7
    -0.495741309559559     0.119121672537112    -0.000000000000000
     0.963621597180729    -1.120863427796169     0.000000000000000
     0.000000000000000    -0.000000000000000    -0.108572157951702
   4   8
    -0.495741309559654    -0.119121672537709     0.000000000000000
    -0.963621597181971    -1.120863427796975     0.000000000000000
    -0.000000000000000    -0.000000000000000    -0.108572157951703
   4   9
    -0.069352758131224    -0.000000000000137    -0.000000000000000
    -0.000000000000137    -0.069352758131350    -0.000000000000000
    -0.000000000000000    -0.000000000000000    -0.155397779646110
   4  10
    -0.018620905617028     0.025493169884641    -0.000000000000000
     0.167587221217517    -0.130095921395346     0.000000000000000
     0.000000000000000    -0.000000000000000     0.035151218374024
   4  11
     0.043343988626453    -0.000000000000048     0.000000000000000
    -0.000000000000048     0.043343988626238    -0.000000000000000
     0.000000000000000    -0.000000000000000     0.000653255232729
   4  12
    -0.018620905616907    -0.025493169884972     0.000000000000000
    -0.167587221218089    -0.130095921395755     0.000000000000000
    -0.000000000000000    -0.000000000000000     0.035151218374024
   4  13
     0.375713302698998     0.000000000000112    -0.000000000000000
     0.000000000000112     0.375713302699861    -0.000000000000000
    -0.000000000000000    -0.000000000000000    -1.145119675967741
   4  14
    -0.185833429283947     0.071047025666459     0.000000000000000
    -0.071047025666460     0.037116602271966     0.000000000000000
     0.000000000000000    -0.000000000000000     0.035151218374024
   4  15
    -0.185833429284429    -0.071047025666758    -0.000000000000000
     0.071047025666365     0.037116602272142    -0.000000000000000
     0.000000000000000     0.000000000000000     0.035151218374024
   4  16
    -0.018620905616924     0.167587221217860    -0.000000000000000
     0.025493169884547    -0.130095921395397     0.000000000000000
     0.000000000000000    -0.000000000000000     0.035151218374024
   4  17
    -0.018620905617059    -0.167587221218035     0.000000000000000
    -0.025493169884911    -0.130095921395377    -0.000000000000000
     0.000000000000000    -0.000000000000000     0.035151218374024
   4  18
     0.043343988626322    -0.000000000000087    -0.000000000000000
    -0.000000000000087     0.043343988626369    -0.000000000000000
     0.000000000000000    -0.000000000000000     0.000653255232729
   4  19
     0.170504676959981     0.050321042640343     0.092285884335937
     0.050321042640310     0.228610411988962    -0.053281280163756
     0.092285884335843    -0.053281280163756     0.152736298611006
   4  20
     0.170504676959890    -0.050321042640434    -0.092285884335937
    -0.050321042640338     0.228610411988863    -0.053281280163756
    -0.092285884335890    -0.053281280163837     0.152736298611006
   4  21
     0.084645580425683     0.000000000000341    -0.000000000000373
    -0.000000000000377    -0.690599517987979     0.842891904216647
     0.000000000000373     0.842891904216647    -0.879590477742934
   4  22
    -0.496788243383561    -0.335690974692858    -0.729965801695299
    -0.335690974692236    -0.109165694177691    -0.421445952108002
    -0.729965801694928    -0.421445952108645    -0.879590477742933
   4  23
     0.045623298344783    -0.000000000000198     0.000000000000009
    -0.000000000000230    -0.101055326791048     0.021345943923101
     0.000000000000009     0.021345943923101     0.045297577863848
   4  24
    -0.496788243382833     0.335690974692095     0.729965801694928
     0.335690974692455    -0.109165694177743    -0.421445952108647
     0.729965801694555    -0.421445952108003    -0.879590477742933
   4  25
     0.257663279502749     0.000000000000013     0.000000000000047
    -0.000000000000073     0.141451809445830     0.106562560327593
     0.000000000000047     0.106562560327593     0.152736298611006
   4  26
    -0.064385670506687     0.063513707779733     0.018486129705140
     0.063513707779762     0.008953642060718    -0.010672971961559
     0.018486129705130    -0.010672971961542     0.045297577863848
   4  27
    -0.064385670506710    -0.063513707779966    -0.018486129705140
    -0.063513707779973     0.008953642060682    -0.010672971961559
    -0.018486129705140    -0.010672971961559     0.045297577863848
   4  28
     0.170504676959981     0.050321042640343    -0.092285884335937
     0.050321042640310     0.228610411988962     0.053281280163756
    -0.092285884335843     0.053281280163756     0.152736298611006
   4  29
     0.170504676959890    -0.050321042640434     0.092285884335937
    -0.050321042640338     0.228610411988863     0.053281280163756
     0.092285884335890     0.053281280163837     0.152736298611006
   4  30
     0.084645580425683     0.000000000000341     0.000000000000373
    -0.000000000000377    -0.690599517987979    -0.842891904216647
    -0.000000000000373    -0.842891904216647    -0.879590477742934
   4  31
    -0.496788243383561    -0.335690974692858     0.729965801695299
    -0.335690974692236    -0.109165694177691     0.421445952108002
     0.729965801694928     0.421445952108645    -0.879590477742933
   4  32
     0.045623298344783    -0.000000000000198    -0.000000000000009
    -0.000000000000230    -0.101055326791048    -0.021345943923101
    -0.000000000000009    -0.021345943923101     0.045297577863848
   4  33
    -0.496788243382833     0.335690974692095    -0.729965801694928
     0.335690974692455    -0.109165694177743     0.421445952108647
    -0.729965801694555     0.421445952108003    -0.879590477742933
   4  34
     0.257663279502749     0.000000000000013    -0.000000000000047
    -0.000000000000073     0.141451809445830    -0.106562560327593
    -0.000000000000047    -0.106562560327593     0.152736298611006
   4  35
    -0.064385670506687     0.063513707779733    -0.018486129705140
     0.063513707779762     0.008953642060718     0.010672971961559