  170

    1
0.0000000000e+00 0.0000000000e+00 0.0000000000e+00
0.0000000000e+00 0.0000000000e+00 0.0000000000e+00
     1      1      1
 1  1  1     0.0000000000e+00
 1  1  2     1.2405629531e-02
 1  1  3     0.0000000000e+00
 1  2  1     1.2405629531e-02
 1  2  2     0.0000000000e+00
 1  2  3     0.0000000000e+00
 1  3  1     0.0000000000e+00
 1  3  2     0.0000000000e+00
 1  3  3     0.0000000000e+00
 2  1  1     1.2405629531e-02
 2  1  2     0.0000000000e+00
 2  1  3     0.0000000000e+00
 2  2  1     0.0000000000e+00
 2  2  2    -1.2405629531e-02
 2  2  3     0.0000000000e+00
 2  3  1     0.0000000000e+00
 2  3  2     0.0000000000e+00
 2  3  3     0.0000000000e+00
 3  1  1     0.0000000000e+00
 3  1  2     0.0000000000e+00
 3  1  3     0.0000000000e+00
 3  2  1     0.0000000000e+00
 3  2  2     0.0000000000e+00
 3  2  3     0.0000000000e+00
 3  3  1     0.0000000000e+00
 3  3  2     0.0000000000e+00
 3  3  3     0.0000000000e+00

    2
0.0000000000e+00 0.0000000000e+00 0.0000000000e+00
0.0000000000e+00 0.0000000000e+00 0.0000000000e+00
     1      1      2
 1  1  1    -1.1040140495e-01
 1  1  2     1.7793305233e-01
 1  1  3    -3.0501840361e-01
 1  2  1     6.3389229363e-02
 1  2  2    -1.0293237534e-01
 1  2  3    -1.4899348392e-01
 1  3  1    -7.8341151686e-01
 1  3  2    -2.1417778046e-01
 1  3  3    -2.2351984024e+00
 2  1  1     6.3389229363e-02
 2  1  2    -1.0293237534e-01
 2  1  3    -1.4899348392e-01
 2  2  1     9.5463345726e-02
 2  2  2    -1.8655754484e-01
 2  2  3    -1.3297554750e-01
 2  3  1    -2.1417778046e-01
 2  3  2    -5.3610031845e-01
 2  3  3    -1.2904923993e+00
 3  1  1    -7.8341151686e-01
 3  1  2    -2.1417778046e-01
 3  1  3    -2.2351984024e+00
 3  2  1    -2.1417778046e-01
 3  2  2    -5.3610031845e-01
 3  2  3    -1.2904923993e+00
 3  3  1    -2.3486197447e+00
 3  3  2    -1.3559762418e+00
 3  3  3    -2.7832549920e+00

    3
0.0000000000e+00 0.0000000000e+00 0.0000000000e+00
3.2116684448e+00 0.0000000000e+00 0.0000000000e+00
     1      1      1
 1  1  1    -3.8824905410e+00
 1  1  2    -2.3583122298e-01
 1  1  3     0.0000000000e+00
 1  2  1    -1.1691637225e-01
 1  2  2     4.0340193699e-02
 1  2  3     0.0000000000e+00
 1  3  1     0.0000000000e+00
 1  3  2     0.0000000000e+00
 1  3  3    -1.1051003002e-01
 2  1  1    -1.1691637225e-01
 2  1  2     4.0340193699e-02
 2  1  3     0.0000000000e+00
 2  2  1     1.0274955385e-01
 2  2  2     2.9875482900e-02
 2  2  3     0.0000000000e+00
 2  3  1     0.0000000000e+00
 2  3  2     0.0000000000e+00
 2  3  3    -3.8885844482e-02
 3  1  1     0.0000000000e+00
 3  1  2     0.0000000000e+00
 3  1  3    -1.1051003002e-01
 3  2  1     0.0000000000e+00
 3  2  2     0.0000000000e+00
 3  2  3    -3.8885844482e-02
 3  3  1     1.0989204340e-01
 3  3  2     1.1476452835e-01
 3  3  3     0.0000000000e+00

    4
0.0000000000e+00 0.0000000000e+00 0.0000000000e+00
-3.2116684448e+00 0.0000000000e+00 0.0000000000e+00
     1      1      1
 1  1  1     3.8824905410e+00
 1  1  2    -2.3583122298e-01
 1  1  3     0.0000000000e+00
 1  2  1    -1.1691637225e-01
 1  2  2    -4.0340193699e-02
 1  2  3     0.0000000000e+00
 1  3  1     0.0000000000e+00
 1  3  2     0.0000000000e+00
 1  3  3     1.1051003002e-01
 2  1  1    -1.1691637225e-01
 2  1  2    -4.0340193699e-02
 2  1  3     0.0000000000e+00
 2  2  1    -1.0274955385e-01
 2  2  2     2.9875482900e-02
 2  2  3     0.0000000000e+00
 2  3  1     0.0000000000e+00
 2  3  2     0.0000000000e+00
 2  3  3    -3.8885844482e-02
 3  1  1     0.0000000000e+00
 3  1  2     0.0000000000e+00
 3  1  3     1.1051003002e-01
 3  2  1     0.0000000000e+00
 3  2  2     0.0000000000e+00
 3  2  3    -3.8885844482e-02
 3  3  1    -1.0989204340e-01
 3  3  2     1.1476452835e-01
 3  3  3     0.0000000000e+00

    5
0.0000000000e+00 0.0000000000e+00 0.0000000000e+00
-3.2116684448e+00 0.0000000000e+00 0.0000000000e+00
     1      1      2
 1  1  1     1.1040140495e-01
 1  1  2     1.7793305233e-01
 1  1  3    -3.0501840361e-01
 1  2  1     6.3389229363e-02
 1  2  2     1.0293237534e-01
 1  2  3     1.4899348392e-01
 1  3  1    -7.8341151686e-01
 1  3  2     2.1417778046e-01
 1  3  3     2.2351984024e+00
 2  1  1     6.3389229363e-02
 2  1  2     1.0293237534e-01
 2  1  3     1.4899348392e-01
 2  2  1    -9.5463345726e-02
 2  2  2    -1.8655754484e-01
 2  2  3    -1.3297554750e-01
 2  3  1     2.1417778046e-01
 2  3  2    -5.3610031845e-01
 2  3  3    -1.2904923993e+00
 3  1  1    -7.8341151686e-01
 3  1  2     2.1417778046e-01
 3  1  3     2.2351984024e+00
 3  2  1     2.1417778046e-01
 3  2  2    -5.3610031845e-01
 3  2  3    -1.2904923993e+00
 3  3  1     2.3486197447e+00
 3  3  2    -1.3559762418e+00
 3  3  3    -2.7832549920e+00

    6
0.0000000000e+00 0.0000000000e+00 0.0000000000e+00
-1.6058342224e+00 2.7813864618e+00 0.0000000000e+00
     1      1      1
 1  1  1     4.9880562607e-01
 1  1  2    -8.6072556540e-01
 1  1  3     0.0000000000e+00
 1  2  1    -9.7423108209e-01
 1  2  2     1.4976491689e+00
 1  2  3     0.0000000000e+00
 1  3  1     0.0000000000e+00
 1  3  2     0.0000000000e+00
 1  3  3     8.8931144176e-02
 2  1  1    -9.7423108209e-01
 2  1  2     1.4976491689e+00
 2  1  3     0.0000000000e+00
 2  2  1     1.5694277705e+00
 2  2  2    -2.3096482792e+00
 2  2  3     0.0000000000e+00
 2  3  1     0.0000000000e+00
 2  3  2     0.0000000000e+00
 2  3  3    -7.6261571125e-02
 3  1  1     0.0000000000e+00
 3  1  2     0.0000000000e+00
 3  1  3     8.8931144176e-02
 3  2  1     0.0000000000e+00
 3  2  2     0.0000000000e+00
 3  2  3    -7.6261571125e-02
 3  3  1    -1.5433501871e-01
 3  3  2     3.7787037081e-02
 3  3  3     0.0000000000e+00

    7
0.0000000000e+00 0.0000000000e+00 0.0000000000e+00
1.6058342224e+00 2.7813864618e+00 0.0000000000e+00
     1      1      1
 1  1  1    -4.9880562607e-01
 1  1  2    -8.6072556540e-01
 1  1  3     0.0000000000e+00
 1  2  1    -9.7423108209e-01
 1  2  2    -1.4976491689e+00
 1  2  3     0.0000000000e+00
 1  3  1     0.0000000000e+00
 1  3  2     0.0000000000e+00
 1  3  3    -8.8931144176e-02
 2  1  1    -9.7423108209e-01
 2  1  2    -1.4976491689e+00
 2  1  3     0.0000000000e+00
 2  2  1    -1.5694277705e+00
 2  2  2    -2.3096482792e+00
 2  2  3     0.0000000000e+00
 2  3  1     0.0000000000e+00
 2  3  2     0.0000000000e+00
 2  3  3    -7.6261571125e-02
 3  1  1     0.0000000000e+00
 3  1  2     0.0000000000e+00
 3  1  3    -8.8931144176e-02
 3  2  1     0.0000000000e+00
 3  2  2     0.0000000000e+00
 3  2  3    -7.6261571125e-02
 3  3  1     1.5433501871e-01
 3  3  2     3.7787037081e-02
 3  3  3     0.0000000000e+00

    8
0.0000000000e+00 0.0000000000e+00 0.0000000000e+00
1.6058342224e+00 -2.7813864618e+00 0.0000000000e+00
     1      1      1
 1  1  1    -3.3424455325e-01
 1  1  2     7.2190220059e-01
 1  1  3     0.0000000000e+00
 1  2  1     7.1649286655e-01
 1  2  2    -1.5114509991e+00
 1  2  3     0.0000000000e+00
 1  3  1     0.0000000000e+00
 1  3  2     0.0000000000e+00
 1  3  3    -2.1578885839e-02
 2  1  1     7.1649286655e-01
 2  1  2    -1.5114509991e+00
 2  1  3     0.0000000000e+00
 2  2  1    -1.3772630374e+00
 2  2  2     2.6544273841e+00
 2  2  3     0.0000000000e+00
 2  3  1     0.0000000000e+00
 2  3  2     0.0000000000e+00
 2  3  3     1.1514741561e-01
 3  1  1     0.0000000000e+00
 3  1  2     0.0000000000e+00
 3  1  3    -2.1578885839e-02
 3  2  1     0.0000000000e+00
 3  2  2     0.0000000000e+00
 3  2  3     1.1514741561e-01
 3  3  1    -4.4442975308e-02
 3  3  2    -1.5255156544e-01
 3  3  3     0.0000000000e+00

    9
0.0000000000e+00 0.0000000000e+00 0.0000000000e+00
-1.6058342224e+00 -2.7813864618e+00 0.0000000000e+00
     1      1      1
 1  1  1     3.3424455325e-01
 1  1  2     7.2190220059e-01
 1  1  3     0.0000000000e+00
 1  2  1     7.1649286655e-01
 1  2  2     1.5114509991e+00
 1  2  3     0.0000000000e+00
 1  3  1     0.0000000000e+00
 1  3  2     0.0000000000e+00
 1  3  3     2.1578885839e-02
 2  1  1     7.1649286655e-01
 2  1  2     1.5114509991e+00
 2  1  3     0.0000000000e+00
 2  2  1     1.3772630374e+00
 2  2  2     2.6544273841e+00
 2  2  3     0.0000000000e+00
 2  3  1     0.0000000000e+00
 2  3  2     0.0000000000e+00
 2  3  3     1.1514741561e-01
 3  1  1     0.0000000000e+00
 3  1  2     0.0000000000e+00
 3  1  3     2.1578885839e-02
 3  2  1     0.0000000000e+00
 3  2  2     0.0000000000e+00
 3  2  3     1.1514741561e-01
 3  3  1     4.4442975308e-02
 3  3  2    -1.5255156544e-01
 3  3  3     0.0000000000e+00

   10
0.0000000000e+00 0.0000000000e+00 0.0000000000e+00
-1.6058342224e+00 -2.7813864618e+00 0.0000000000e+00
     1      1      2
 1  1  1     0.0000000000e+00
 1  1  2     1.2585687268e-02
 1  1  3    -4.6954119454e-02
 1  2  1     2.4167333320e-01
 1  2  2     0.0000000000e+00
 1  2  3     0.0000000000e+00
 1  3  1    -4.1244471924e-01
 1  3  2     0.0000000000e+00
 1  3  3     0.0000000000e+00
 2  1  1     2.4167333320e-01
 2  1  2     0.0000000000e+00
 2  1  3     0.0000000000e+00
 2  2  1     0.0000000000e+00
 2  2  2     4.6632977638e-03
 2  2  3    -3.9103983166e-01
 2  3  1     0.0000000000e+00
 2  3  2    -9.0706711607e-01
 2  3  3     2.5809847986e+00
 3  1  1    -4.1244471924e-01
 3  1  2     0.0000000000e+00
 3  1  3     0.0000000000e+00
 3  2  1     0.0000000000e+00
 3  2  2    -9.0706711607e-01
 3  2  3     2.5809847986e+00
 3  3  1     0.0000000000e+00
 3  3  2     2.7119524836e+00
 3  3  3    -2.7832549920e+00

   11
0.0000000000e+00 0.0000000000e+00 0.0000000000e+00
0.0000000000e+00 0.0000000000e+00 -5.2024426300e+00
     1      1      2
 1  1  1    -1.1040140495e-01
 1  1  2     1.7793305233e-01
 1  1  3     3.0501840361e-01
 1  2  1     6.3389229363e-02
 1  2  2    -1.0293237534e-01
 1  2  3     1.4899348392e-01
 1  3  1     7.8341151686e-01
 1  3  2     2.1417778046e-01
 1  3  3    -2.2351984024e+00
 2  1  1     6.3389229363e-02
 2  1  2    -1.0293237534e-01
 2  1  3     1.4899348392e-01
 2  2  1     9.5463345726e-02
 2  2  2    -1.8655754484e-01
 2  2  3     1.3297554750e-01
 2  3  1     2.1417778046e-01
 2  3  2     5.3610031845e-01
 2  3  3    -1.2904923993e+00
 3  1  1     7.8341151686e-01
 3  1  2     2.1417778046e-01
 3  1  3    -2.2351984024e+00
 3  2  1     2.1417778046e-01
 3  2  2     5.3610031845e-01
 3  2  3    -1.2904923993e+00
 3  3  1    -2.3486197447e+00
 3  3  2    -1.3559762418e+00
 3  3  3     2.7832549920e+00

   12
0.0000000000e+00 0.0000000000e+00 0.0000000000e+00
-3.2116684448e+00 0.0000000000e+00 -5.2024426300e+00
     1      1      2
 1  1  1     1.1040140495e-01
 1  1  2     1.7793305233e-01
 1  1  3     3.0501840361e-01
 1  2  1     6.3389229363e-02
 1  2  2     1.0293237534e-01
 1  2  3    -1.4899348392e-01
 1  3  1     7.8341151686e-01
 1  3  2    -2.1417778046e-01
 1  3  3     2.2351984024e+00
 2  1  1     6.3389229363e-02
 2  1  2     1.0293237534e-01
 2  1  3    -1.4899348392e-01
 2  2  1    -9.5463345726e-02
 2  2  2    -1.8655754484e-01
 2  2  3     1.3297554750e-01
 2  3  1    -2.1417778046e-01
 2  3  2     5.3610031845e-01
 2  3  3    -1.2904923993e+00
 3  1  1     7.8341151686e-01
 3  1  2    -2.1417778046e-01
 3  1  3     2.2351984024e+00
 3  2  1    -2.1417778046e-01
 3  2  2     5.3610031845e-01
 3  2  3    -1.2904923993e+00
 3  3  1     2.3486197447e+00
 3  3  2    -1.3559762418e+00
 3  3  3     2.7832549920e+00

   13
0.0000000000e+00 0.0000000000e+00 0.0000000000e+00
-1.6058342224e+00 -2.7813864618e+00 -5.2024426300e+00
     1      1      2
 1  1  1     0.0000000000e+00
 1  1  2     1.2585687268e-02
 1  1  3     4.6954119454e-02
 1  2  1     2.4167333320e-01
 1  2  2     0.0000000000e+00
 1  2  3     0.0000000000e+00
 1  3  1     4.1244471924e-01
 1  3  2     0.0000000000e+00
 1  3  3     0.0000000000e+00
 2  1  1     2.4167333320e-01
 2  1  2     0.0000000000e+00
 2  1  3     0.0000000000e+00
 2  2  1     0.0000000000e+00
 2  2  2     4.6632977638e-03
 2  2  3     3.9103983166e-01
 2  3  1     0.0000000000e+00
 2  3  2     9.0706711607e-01
 2  3  3     2.5809847986e+00
 3  1  1     4.1244471924e-01
 3  1  2     0.0000000000e+00
 3  1  3     0.0000000000e+00
 3  2  1     0.0000000000e+00
 3  2  2     9.0706711607e-01
 3  2  3     2.5809847986e+00
 3  3  1     0.0000000000e+00
 3  3  2     2.7119524836e+00
 3  3  3     2.7832549920e+00

   14
0.0000000000e+00 0.0000000000e+00 0.0000000000e+00
0.0000000000e+00 0.0000000000e+00 0.0000000000e+00
     1      2      1
 1  1  1    -1.1040140495e-01
 1  1  2     6.3389229363e-02
 1  1  3    -7.8341151686e-01
 1  2  1     1.7793305233e-01
 1  2  2    -1.0293237534e-01
 1  2  3    -2.1417778046e-01
 1  3  1    -3.0501840361e-01
 1  3  2    -1.4899348392e-01
 1  3  3    -2.2351984024e+00
 2  1  1     6.3389229363e-02
 2  1  2     9.5463345726e-02
 2  1  3    -2.1417778046e-01
 2  2  1    -1.0293237534e-01
 2  2  2    -1.8655754484e-01
 2  2  3    -5.3610031845e-01
 2  3  1    -1.4899348392e-01
 2  3  2    -1.3297554750e-01
 2  3  3    -1.2904923993e+00
 3  1  1    -7.8341151686e-01
 3  1  2    -2.1417778046e-01
 3  1  3    -2.3486197447e+00
 3  2  1    -2.1417778046e-01
 3  2  2    -5.3610031845e-01
 3  2  3    -1.3559762418e+00
 3  3  1    -2.2351984024e+00
 3  3  2    -1.2904923993e+00
 3  3  3    -2.7832549920e+00

   15
0.0000000000e+00 0.0000000000e+00 0.0000000000e+00
0.0000000000e+00 0.0000000000e+00 0.0000000000e+00
     1      2      2
 1  1  1     1.1040140495e-01
 1  1  2    -6.3389229363e-02
 1  1  3     7.8341151686e-01
 1  2  1    -6.3389229363e-02
 1  2  2    -9.5463345726e-02
 1  2  3     2.1417778046e-01
 1  3  1     7.8341151686e-01
 1  3  2     2.1417778046e-01
 1  3  3     2.3486197447e+00
 2  1  1    -1.7793305233e-01
 2  1  2     1.0293237534e-01
 2  1  3     2.1417778046e-01
 2  2  1     1.0293237534e-01
 2  2  2     1.8655754484e-01
 2  2  3     5.3610031845e-01
 2  3  1     2.1417778046e-01
 2  3  2     5.3610031845e-01
 2  3  3     1.3559762418e+00
 3  1  1     3.0501840361e-01
 3  1  2     1.4899348392e-01
 3  1  3     2.2351984024e+00
 3  2  1     1.4899348392e-01
 3  2  2     1.3297554750e-01
 3  2  3     1.2904923993e+00
 3  3  1     2.2351984024e+00
 3  3  2     1.2904923993e+00
 3  3  3     2.7832549920e+00

   16
0.0000000000e+00 0.0000000000e+00 0.0000000000e+00
3.2116684448e+00 0.0000000000e+00 0.0000000000e+00
     1      2      1
 1  1  1     0.0000000000e+00
 1  1  2     6.0825378796e-02
 1  1  3     1.6399421459e-01
 1  2  1     1.0842423336e-01
 1  2  2     1.5974502691e-01
 1  2  3    -1.9814691453e-01
 1  3  1     5.4458346975e-02
 1  3  2     1.2185674323e-01
 1  3  3    -5.8822967060e-02
 2  1  1     6.0825378796e-02
 2  1  2     0.0000000000e+00
 2  1  3    -1.6756649422e-02
 2  2  1    -1.5974502691e-01
 2  2  2     4.9987512379e-02
 2  2  3     1.5187968579e-01
 2  3  1    -1.2185674323e-01
 2  3  2    -1.7934338869e-01
 2  3  3    -2.2025385591e-02
 3  1  1     1.6399421459e-01
 3  1  2     1.6756649422e-02
 3  1  3     0.0000000000e+00
 3  2  1     1.9814691453e-01
 3  2  2     1.5187968579e-01
 3  2  3     7.0579317905e-03
 3  3  1     5.8822967060e-02
 3  3  2    -2.2025385591e-02
 3  3  3    -2.6217828229e-01

   17
0.0000000000e+00 0.0000000000e+00 0.0000000000e+00
-3.2116684448e+00 0.0000000000e+00 0.0000000000e+00
     1      2      2
 1  1  1     0.0000000000e+00
 1  1  2    -6.0825378796e-02
 1  1  3    -1.6399421459e-01
 1  2  1    -6.0825378796e-02
 1  2  2     0.0000000000e+00
 1  2  3     1.6756649422e-02
 1  3  1    -1.6399421459e-01
 1  3  2    -1.6756649422e-02
 1  3  3     0.0000000000e+00
 2  1  1    -1.0842423336e-01
 2  1  2    -1.5974502691e-01
 2  1  3     1.9814691453e-01
 2  2  1     1.5974502691e-01
 2  2  2    -4.9987512379e-02
 2  2  3    -1.5187968579e-01
 2  3  1    -1.9814691453e-01
 2  3  2    -1.5187968579e-01
 2  3  3    -7.0579317905e-03
 3  1  1    -5.4458346975e-02
 3  1  2    -1.2185674323e-01
 3  1  3     5.8822967060e-02
 3  2  1     1.2185674323e-01
 3  2  2     1.7934338869e-01
 3  2  3     2.2025385591e-02
 3  3  1    -5.8822967060e-02
 3  3  2     2.2025385591e-02
 3  3  3     2.6217828229e-01

   18
0.0000000000e+00 0.0000000000e+00 0.0000000000e+00
1.6058342224e+00 2.7813864618e+00 0.0000000000e+00
     1      2      1
 1  1  1     8.2280538431e-02
 1  1  2    -1.0122313636e-01
 1  1  3     6.1852345121e-02
 1  2  1     1.3320687784e-02
 1  2  2     9.3558753850e-02
 1  2  3     4.2214986413e-02
 1  3  1    -1.2089295477e-01
 1  3  2    -2.0617621964e-02
 1  3  3    -4.8486026980e-02
 2  1  1     1.7546336650e-01
 2  1  2     5.4908057642e-02
 2  1  3    -1.3917527869e-01
 2  2  1    -6.6186273061e-02
 2  2  2    -9.2526560656e-02
 2  2  3     2.5402155526e-01
 2  3  1     2.2309586450e-01
 2  3  2    -3.9920869412e-03
 2  3  3    -3.9929491005e-02
 3  1  1     2.4796429086e-01
 3  1  2     1.4966676839e-01
 3  1  3     6.1123482287e-03
 3  2  1    -3.1723496718e-02
 3  2  2     6.7909609521e-02
 3  2  3    -3.5289658952e-03
 3  3  1     1.0336940080e-02
 3  3  2     6.1954876596e-02
 3  3  3    -2.6217828229e-01

   19
0.0000000000e+00 0.0000000000e+00 0.0000000000e+00
-1.6058342224e+00 -2.7813864618e+00 0.0000000000e+00
     1      2      2
 1  1  1    -8.2280538431e-02
 1  1  2     1.0122313636e-01
 1  1  3    -6.1852345121e-02
 1  2  1    -1.7546336650e-01
 1  2  2    -5.4908057642e-02
 1  2  3     1.3917527869e-01
 1  3  1    -2.4796429086e-01
 1  3  2    -1.4966676839e-01
 1  3  3    -6.1123482287e-03
 2  1  1    -1.3320687784e-02
 2  1  2    -9.3558753850e-02
 2  1  3    -4.2214986413e-02
 2  2  1     6.6186273061e-02
 2  2  2     9.2526560656e-02
 2  2  3    -2.5402155526e-01
 2  3  1     3.1723496718e-02
 2  3  2    -6.7909609521e-02
 2  3  3     3.5289658952e-03
 3  1  1     1.2089295477e-01
 3  1  2     2.0617621964e-02
 3  1  3     4.8486026980e-02
 3  2  1    -2.2309586450e-01
 3  2  2     3.9920869412e-03
 3  2  3     3.9929491005e-02
 3  3  1    -1.0336940080e-02
 3  3  2    -6.1954876596e-02
 3  3  3     2.6217828229e-01

   20
3.2116684448e+00 0.0000000000e+00 0.0000000000e+00
0.0000000000e+00 0.0000000000e+00 0.0000000000e+00
     1      1      1
 1  1  1    -3.8824905410e+00
 1  1  2    -1.1691637225e-01
 1  1  3     0.0000000000e+00
 1  2  1    -2.3583122298e-01
 1  2  2     4.0340193699e-02
 1  2  3     0.0000000000e+00
 1  3  1     0.0000000000e+00
 1  3  2     0.0000000000e+00
 1  3  3    -1.1051003002e-01
 2  1  1    -1.1691637225e-01
 2  1  2     1.0274955385e-01
 2  1  3     0.0000000000e+00
 2  2  1     4.0340193699e-02
 2  2  2     2.9875482900e-02
 2  2  3     0.0000000000e+00
 2  3  1     0.0000000000e+00
 2  3  2     0.0000000000e+00
 2  3  3    -3.8885844482e-02
 3  1  1     0.0000000000e+00
 3  1  2     0.0000000000e+00
 3  1  3     1.0989204340e-01
 3  2  1     0.0000000000e+00
 3  2  2     0.0000000000e+00
 3  2  3     1.1476452835e-01
 3  3  1    -1.1051003002e-01
 3  3  2    -3.8885844482e-02
 3  3  3     0.0000000000e+00

   21
3.2116684448e+00 0.0000000000e+00 0.0000000000e+00
0.0000000000e+00 0.0000000000e+00 0.0000000000e+00
     1      1      2
 1  1  1     0.0000000000e+00
 1  1  2     1.0842423336e-01
 1  1  3     5.4458346975e-02
 1  2  1     6.0825378796e-02
 1  2  2     1.5974502691e-01
 1  2  3     1.2185674323e-01
 1  3  1     1.6399421459e-01
 1  3  2    -1.9814691453e-01
 1  3  3    -5.8822967060e-02
 2  1  1     6.0825378796e-02
 2  1  2    -1.5974502691e-01
 2  1  3    -1.2185674323e-01
 2  2  1     0.0000000000e+00
 2  2  2     4.9987512379e-02
 2  2  3    -1.7934338869e-01
 2  3  1    -1.6756649422e-02
 2  3  2     1.5187968579e-01
 2  3  3    -2.2025385591e-02
 3  1  1     1.6399421459e-01
 3  1  2     1.9814691453e-01
 3  1  3     5.8822967060e-02
 3  2  1     1.6756649422e-02
 3  2  2     1.5187968579e-01
 3  2  3    -2.2025385591e-02
 3  3  1     0.0000000000e+00
 3  3  2     7.0579317905e-03
 3  3  3    -2.6217828229e-01

   22
3.2116684448e+00 0.0000000000e+00 0.0000000000e+00
3.2116684448e+00 0.0000000000e+00 0.0000000000e+00
     1      1      1
 1  1  1     3.8824905410e+00
 1  1  2    -1.1691637225e-01
 1  1  3     0.0000000000e+00
 1  2  1    -1.1691637225e-01
 1  2  2    -1.0274955385e-01
 1  2  3     0.0000000000e+00
 1  3  1     0.0000000000e+00
 1  3  2     0.0000000000e+00
 1  3  3    -1.0989204340e-01
 2  1  1    -2.3583122298e-01
 2  1  2    -4.0340193699e-02
 2  1  3     0.0000000000e+00
 2  2  1    -4.0340193699e-02
 2  2  2     2.9875482900e-02
 2  2  3     0.0000000000e+00
 2  3  1     0.0000000000e+00
 2  3  2     0.0000000000e+00
 2  3  3     1.1476452835e-01
 3  1  1     0.0000000000e+00
 3  1  2     0.0000000000e+00
 3  1  3     1.1051003002e-01
 3  2  1     0.0000000000e+00
 3  2  2     0.0000000000e+00
 3  2  3    -3.8885844482e-02
 3  3  1     1.1051003002e-01
 3  3  2    -3.8885844482e-02
 3  3  3     0.0000000000e+00

   23
3.2116684448e+00 0.0000000000e+00 0.0000000000e+00
1.6058342224e+00 2.7813864618e+00 0.0000000000e+00
     1      1      1
 1  1  1     0.0000000000e+00
 1  1  2     4.6496599175e-01
 1  1  3     0.0000000000e+00
 1  2  1     3.4938385889e-01
 1  2  2    -6.6731375522e-02
 1  2  3     0.0000000000e+00
 1  3  1     0.0000000000e+00
 1  3  2     0.0000000000e+00
 1  3  3     1.4146022283e-01
 2  1  1     3.4938385889e-01
 2  1  2     6.6731375522e-02
 2  1  3     0.0000000000e+00
 2  2  1     0.0000000000e+00
 2  2  2    -3.8791123651e-01
 2  2  3     0.0000000000e+00
 2  3  1     0.0000000000e+00
 2  3  2     0.0000000000e+00
 2  3  3     8.1672097729e-02
 3  1  1     0.0000000000e+00
 3  1  2     0.0000000000e+00
 3  1  3    -1.4146022283e-01
 3  2  1     0.0000000000e+00
 3  2  2     0.0000000000e+00
 3  2  3     8.1672097729e-02
 3  3  1     0.0000000000e+00
 3  3  2    -1.6334419546e-01
 3  3  3     0.0000000000e+00

   24
3.2116684448e+00 0.0000000000e+00 0.0000000000e+00
1.6058342224e+00 -2.7813864618e+00 0.0000000000e+00
     1      1      1
 1  1  1     0.0000000000e+00
 1  1  2    -4.4798170494e-01
 1  1  3     0.0000000000e+00
 1  2  1    -1.1828701528e-01
 1  2  2    -1.9034931783e-01
 1  2  3     0.0000000000e+00
 1  3  1     0.0000000000e+00
 1  3  2     0.0000000000e+00
 1  3  3     1.9658778471e-01
 2  1  1    -1.1828701528e-01
 2  1  2     1.9034931783e-01
 2  1  3     0.0000000000e+00
 2  2  1     0.0000000000e+00
 2  2  2     2.2818524516e-01
 2  2  3     0.0000000000e+00
 2  3  1     0.0000000000e+00
 2  3  2     0.0000000000e+00
 2  3  3    -1.1350001042e-01
 3  1  1     0.0000000000e+00
 3  1  2     0.0000000000e+00
 3  1  3    -1.9658778471e-01
 3  2  1     0.0000000000e+00
 3  2  2     0.0000000000e+00
 3  2  3    -1.1350001042e-01
 3  3  1     0.0000000000e+00
 3  3  2     2.2700002084e-01
 3  3  3     0.0000000000e+00

   25
3.2116684448e+00 0.0000000000e+00 0.0000000000e+00
0.0000000000e+00 0.0000000000e+00 -5.2024426300e+00
     1      1      2
 1  1  1     0.0000000000e+00
 1  1  2     1.0842423336e-01
 1  1  3    -5.4458346975e-02
 1  2  1     6.0825378796e-02
 1  2  2     1.5974502691e-01
 1  2  3    -1.2185674323e-01
 1  3  1    -1.6399421459e-01
 1  3  2     1.9814691453e-01
 1  3  3    -5.8822967060e-02
 2  1  1     6.0825378796e-02
 2  1  2    -1.5974502691e-01
 2  1  3     1.2185674323e-01
 2  2  1     0.0000000000e+00
 2  2  2     4.9987512379e-02
 2  2  3     1.7934338869e-01
 2  3  1     1.6756649422e-02
 2  3  2    -1.5187968579e-01
 2  3  3    -2.2025385591e-02
 3  1  1    -1.6399421459e-01
 3  1  2    -1.9814691453e-01
 3  1  3     5.8822967060e-02
 3  2  1    -1.6756649422e-02
 3  2  2    -1.5187968579e-01
 3  2  3    -2.2025385591e-02
 3  3  1     0.0000000000e+00
 3  3  2     7.0579317905e-03
 3  3  3     2.6217828229e-01

   26
-3.2116684448e+00 0.0000000000e+00 0.0000000000e+00
0.0000000000e+00 0.0000000000e+00 0.0000000000e+00
     1      1      1
 1  1  1     3.8824905410e+00
 1  1  2    -1.1691637225e-01
 1  1  3     0.0000000000e+00
 1  2  1    -2.3583122298e-01
 1  2  2    -4.0340193699e-02
 1  2  3     0.0000000000e+00
 1  3  1     0.0000000000e+00
 1  3  2     0.0000000000e+00
 1  3  3     1.1051003002e-01
 2  1  1    -1.1691637225e-01
 2  1  2    -1.0274955385e-01
 2  1  3     0.0000000000e+00
 2  2  1    -4.0340193699e-02
 2  2  2     2.9875482900e-02
 2  2  3     0.0000000000e+00
 2  3  1     0.0000000000e+00
 2  3  2     0.0000000000e+00
 2  3  3    -3.8885844482e-02
 3  1  1     0.0000000000e+00
 3  1  2     0.0000000000e+00
 3  1  3    -1.0989204340e-01
 3  2  1     0.0000000000e+00
 3  2  2     0.0000000000e+00
 3  2  3     1.1476452835e-01
 3  3  1     1.1051003002e-01
 3  3  2    -3.8885844482e-02
 3  3  3     0.0000000000e+00

   27
-3.2116684448e+00 0.0000000000e+00 0.0000000000e+00
-3.2116684448e+00 0.0000000000e+00 0.0000000000e+00
     1      1      1
 1  1  1    -3.8824905410e+00
 1  1  2    -1.1691637225e-01
 1  1  3     0.0000000000e+00
 1  2  1    -1.1691637225e-01
 1  2  2     1.0274955385e-01
 1  2  3     0.0000000000e+00
 1  3  1     0.0000000000e+00
 1  3  2     0.0000000000e+00
 1  3  3     1.0989204340e-01
 2  1  1    -2.3583122298e-01
 2  1  2     4.0340193699e-02
 2  1  3     0.0000000000e+00
 2  2  1     4.0340193699e-02
 2  2  2     2.9875482900e-02
 2  2  3     0.0000000000e+00
 2  3  1     0.0000000000e+00
 2  3  2     0.0000000000e+00
 2  3  3     1.1476452835e-01
 3  1  1     0.0000000000e+00
 3  1  2     0.0000000000e+00
 3  1  3    -1.1051003002e-01
 3  2  1     0.0000000000e+00
 3  2  2     0.0000000000e+00
 3  2  3    -3.8885844482e-02
 3  3  1    -1.1051003002e-01
 3  3  2    -3.8885844482e-02
 3  3  3     0.0000000000e+00

   28
-3.2116684448e+00 0.0000000000e+00 0.0000000000e+00
-3.2116684448e+00 0.0000000000e+00 0.0000000000e+00
     1      1      2
 1  1  1     0.0000000000e+00
 1  1  2     1.0842423336e-01
 1  1  3     5.4458346975e-02
 1  2  1     6.0825378796e-02
 1  2  2    -1.5974502691e-01
 1  2  3    -1.2185674323e-01
 1  3  1     1.6399421459e-01
 1  3  2     1.9814691453e-01
 1  3  3     5.8822967060e-02
 2  1  1     6.0825378796e-02
 2  1  2     1.5974502691e-01
 2  1  3     1.2185674323e-01
 2  2  1     0.0000000000e+00
 2  2  2     4.9987512379e-02
 2  2  3    -1.7934338869e-01
 2  3  1     1.6756649422e-02
 2  3  2     1.5187968579e-01
 2  3  3    -2.2025385591e-02
 3  1  1     1.6399421459e-01
 3  1  2    -1.9814691453e-01
 3  1  3    -5.8822967060e-02
 3  2  1    -1.6756649422e-02
 3  2  2     1.5187968579e-01
 3  2  3    -2.2025385591e-02
 3  3  1     0.0000000000e+00
 3  3  2     7.0579317905e-03
 3  3  3    -2.6217828229e-01

   29
-3.2116684448e+00 0.0000000000e+00 0.0000000000e+00
-1.6058342224e+00 2.7813864618e+00 0.0000000000e+00
     1      1      1
 1  1  1     0.0000000000e+00
 1  1  2     4.6496599175e-01
 1  1  3     0.0000000000e+00
 1  2  1     3.4938385889e-01
 1  2  2     6.6731375522e-02
 1  2  3     0.0000000000e+00
 1  3  1     0.0000000000e+00
 1  3  2     0.0000000000e+00
 1  3  3    -1.4146022283e-01
 2  1  1     3.4938385889e-01
 2  1  2    -6.6731375522e-02
 2  1  3     0.0000000000e+00
 2  2  1     0.0000000000e+00
 2  2  2    -3.8791123651e-01
 2  2  3     0.0000000000e+00
 2  3  1     0.0000000000e+00
 2  3  2     0.0000000000e+00
 2  3  3     8.1672097729e-02
 3  1  1     0.0000000000e+00
 3  1  2     0.0000000000e+00
 3  1  3     1.4146022283e-01
 3  2  1     0.0000000000e+00
 3  2  2     0.0000000000e+00
 3  2  3     8.1672097729e-02
 3  3  1     0.0000000000e+00
 3  3  2    -1.6334419546e-01
 3  3  3     0.0000000000e+00

   30
-3.2116684448e+00 0.0000000000e+00 0.0000000000e+00
-1.6058342224e+00 -2.7813864618e+00 0.0000000000e+00
     1      1      1
 1  1  1     0.0000000000e+00
 1  1  2    -4.4798170494e-01
 1  1  3     0.0000000000e+00
 1  2  1    -1.1828701528e-01
 1  2  2     1.9034931783e-01
 1  2  3     0.0000000000e+00
 1  3  1     0.0000000000e+00
 1  3  2     0.0000000000e+00
 1  3  3    -1.9658778471e-01
 2  1  1    -1.1828701528e-01
 2  1  2    -1.9034931783e-01
 2  1  3     0.0000000000e+00
 2  2  1     0.0000000000e+00
 2  2  2     2.2818524516e-01
 2  2  3     0.0000000000e+00
 2  3  1     0.0000000000e+00
 2  3  2     0.0000000000e+00
 2  3  3    -1.1350001042e-01
 3  1  1     0.0000000000e+00
 3  1  2     0.0000000000e+00
 3  1  3     1.9658778471e-01
 3  2  1     0.0000000000e+00
 3  2  2     0.0000000000e+00
 3  2  3    -1.1350001042e-01
 3  3  1     0.0000000000e+00
 3  3  2     2.2700002084e-01
 3  3  3     0.0000000000e+00

   31
-3.2116684448e+00 0.0000000000e+00 0.0000000000e+00
-3.2116684448e+00 0.0000000000e+00 -5.2024426300e+00
     1      1      2
 1  1  1     0.0000000000e+00
 1  1  2     1.0842423336e-01
 1  1  3    -5.4458346975e-02
 1  2  1     6.0825378796e-02
 1  2  2    -1.5974502691e-01
 1  2  3     1.2185674323e-01
 1  3  1    -1.6399421459e-01
 1  3  2    -1.9814691453e-01
 1  3  3     5.8822967060e-02
 2  1  1     6.0825378796e-02
 2  1  2     1.5974502691e-01
 2  1  3    -1.2185674323e-01
 2  2  1     0.0000000000e+00
 2  2  2     4.9987512379e-02
 2  2  3     1.7934338869e-01
 2  3  1    -1.6756649422e-02
 2  3  2    -1.5187968579e-01
 2  3  3    -2.2025385591e-02
 3  1  1    -1.6399421459e-01
 3  1  2     1.9814691453e-01
 3  1  3    -5.8822967060e-02
 3  2  1     1.6756649422e-02
 3  2  2    -1.5187968579e-01
 3  2  3    -2.2025385591e-02
 3  3  1     0.0000000000e+00
 3  3  2     7.0579317905e-03
 3  3  3     2.6217828229e-01

   32
-3.2116684448e+00 0.0000000000e+00 0.0000000000e+00
0.0000000000e+00 0.0000000000e+00 0.0000000000e+00
     1      2      1
 1  1  1     1.1040140495e-01
 1  1  2     6.3389229363e-02
 1  1  3    -7.8341151686e-01
 1  2  1     1.7793305233e-01
 1  2  2     1.0293237534e-01
 1  2  3     2.1417778046e-01
 1  3  1    -3.0501840361e-01
 1  3  2     1.4899348392e-01
 1  3  3     2.2351984024e+00
 2  1  1     6.3389229363e-02
 2  1  2    -9.5463345726e-02
 2  1  3     2.1417778046e-01
 2  2  1     1.0293237534e-01
 2  2  2    -1.8655754484e-01
 2  2  3    -5.3610031845e-01
 2  3  1     1.4899348392e-01
 2  3  2    -1.3297554750e-01
 2  3  3    -1.2904923993e+00
 3  1  1    -7.8341151686e-01
 3  1  2     2.1417778046e-01
 3  1  3     2.3486197447e+00
 3  2  1     2.1417778046e-01
 3  2  2    -5.3610031845e-01