36   
1    

1    
  0.0203832117260690   0.0000000000000000   0.0220119213093779
  -0.1173885760    0.0002991313   -0.1317297700
   0.0299552923    0.0087522301    0.0025223787
   0.0284848100   -0.0084664440    0.0022588324
   0.0100848789   -0.0025315514    0.0023014163
   0.0101239234    0.0023232246    0.0024769409
   0.0014129048    0.0000448579    0.0034232604
   0.0100810209   -0.0197673680    0.0024341574
   0.0014143592   -0.0000769249    0.0034179475
   0.0101248614    0.0195096019    0.0023455669
  -0.0076582413   -0.0000180143    0.0252062840
   0.0037406105   -0.0014570773   -0.0009042368
   0.0038355136    0.0014330080   -0.0006413170
   0.0003937685   -0.0034563541   -0.0007150230
   0.0003705278    0.0033783838   -0.0008363034
  -0.0008905867    0.0000490317   -0.0000151906
   0.0003674891   -0.0004873456   -0.0008436022
  -0.0008763920   -0.0000120026   -0.0000135688
   0.0003860670    0.0005484834   -0.0007019944
   0.0273544826    0.0166955663    0.0359969390
  -0.0008995648   -0.0004673423   -0.0010304133
  -0.0060973784    0.0025530550    0.0042049991
  -0.0051481010   -0.0024439831   -0.0034166294
   0.0008562604   -0.0010341961   -0.0014642524
   0.0016655350    0.0014615136   -0.0006340452
  -0.0057265836    0.0002559003   -0.0053856370
  -0.0013916706    0.0020923577   -0.0014129553
  -0.0016228297   -0.0191461792    0.0200358279
  -0.0057795035   -0.0023172545    0.0047635196
  -0.0009598086    0.0004672485   -0.0009604663
   0.0250295543   -0.0155400931    0.0325043492
  -0.0053549246    0.0022657933   -0.0033148997
   0.0017735815   -0.0015957175   -0.0006065288
   0.0009536413    0.0010879365   -0.0012868143
  -0.0015039633   -0.0023038949   -0.0015464030
  -0.0052804941   -0.0000358356   -0.0050955917
  -0.0018304644    0.0179402547    0.0186632235
