36   
1    

1    
  0.0203832117260690   0.0000000000000000   0.0220119213093779
  -0.1173885767    0.0002991320   -0.1317297697
   0.0299552936    0.0087522302    0.0025223776
   0.0284848095   -0.0084664431    0.0022588329
   0.0100848786   -0.0025315527    0.0023014156
   0.0101239245    0.0023232248    0.0024769386
   0.0014129040    0.0000448567    0.0034232591
   0.0100810217   -0.0197673677    0.0024341583
   0.0014143590   -0.0000769239    0.0034179478
   0.0101248608    0.0195096012    0.0023455678
  -0.0076582427   -0.0000180151    0.0252062837
   0.0037406120   -0.0014570779   -0.0009042357
   0.0038355134    0.0014330092   -0.0006413176
   0.0003937664   -0.0034563541   -0.0007150223
   0.0003705293    0.0033783850   -0.0008363011
  -0.0008905862    0.0000490323   -0.0000151892
   0.0003674892   -0.0004873468   -0.0008436031
  -0.0008763930   -0.0000120020   -0.0000135691
   0.0003860680    0.0005484823   -0.0007019953
   0.0273544818    0.0166955639    0.0359969374
  -0.0008995647   -0.0004673411   -0.0010304134
  -0.0060973778    0.0025530538    0.0042049987
  -0.0051481020   -0.0024439829   -0.0034166303
   0.0008562630   -0.0010341958   -0.0014642521
   0.0016655333    0.0014615142   -0.0006340435
  -0.0057265852    0.0002559003   -0.0053856364
  -0.0013916697    0.0020923584   -0.0014129550
  -0.0016228288   -0.0191461787    0.0200358292
  -0.0057795037   -0.0023172548    0.0047635212
  -0.0009598098    0.0004672513   -0.0009604662
   0.0250295556   -0.0155400912    0.0325043496
  -0.0053549260    0.0022657923   -0.0033148989
   0.0017735836   -0.0015957197   -0.0006065290
   0.0009536406    0.0010879364   -0.0012868160
  -0.0015039651   -0.0023038956   -0.0015464036
  -0.0052804948   -0.0000358362   -0.0050955921
  -0.0018304619    0.0179402547    0.0186632222
