  80   80
1 1
     1.534549991250000     0.000000000000000     0.212614393750000
     0.000000000000000     1.045753409999999    -0.000000000000000
     0.212614393750000    -0.000000000000000     1.024485346250001
1 2
    -0.059393008750000    -0.000000000000000    -0.004633856250000
    -0.000000000000000     0.014471410000000    -0.000000000000000
    -0.004633856250000    -0.000000000000000     0.005565846250000
1 3
     0.005392991250000    -0.000000000000000    -0.000648356250000
    -0.000000000000000     0.013888410000000    -0.000000000000000
    -0.000648356250000    -0.000000000000000    -0.070732153750000
1 4
    -0.011558008750000    -0.000000000000000     0.001147393750000
    -0.000000000000000     0.006460410000000    -0.000000000000000
     0.001147393750000    -0.000000000000000    -0.005038153750000
1 5
    -0.002508758750000    -0.000000000000000    -0.023025756250000
     0.000000000000000    -0.047002090000000    -0.000000000000000
    -0.029632743750000     0.000000000000000    -0.014161403750000
1 6
    -0.018034758750000     0.000000000000000     0.014299993750000
    -0.000000000000000    -0.021165090000000    -0.000000000000000
     0.016982506250000     0.000000000000000    -0.002206403750000
1 7
    -0.002508758750000     0.000000000000000     0.029632743750000
    -0.000000000000000    -0.047002090000000    -0.000000000000000
     0.023025756250000     0.000000000000000    -0.014161403750000
1 8
    -0.018034758750000     0.000000000000000    -0.016982506250000
     0.000000000000000    -0.021165090000000    -0.000000000000000
    -0.014299993750000     0.000000000000000    -0.002206403750000
1 9
    -0.048304508750000    -0.000000000000000    -0.061666256250000
     0.000000000000000     0.044407410000000    -0.000000000000000
    -0.059464993750000     0.000000000000000    -0.020839903750000
1 10
    -0.048304508750000     0.000000000000000     0.059464993750000
    -0.000000000000000     0.044407410000000    -0.000000000000000
     0.061666256250000     0.000000000000000    -0.020839903750000
1 11
    -0.020148258750000    -0.000000000000000     0.042206993750000
    -0.000000000000000     0.018405410000000    -0.000000000000000
     0.059406756250000     0.000000000000000    -0.021519653750000
1 12
    -0.020148258750000    -0.000000000000000    -0.059406756250000
    -0.000000000000000     0.018405410000000    -0.000000000000000
    -0.042206993750000     0.000000000000000    -0.021519653750000
1 13
     0.054608991250000    -0.000000000000000     0.025780643750000
     0.000000000000000    -0.127873590000000    -0.000000000000000
     0.025780643750000    -0.000000000000000     0.062511346250000
1 14
    -0.038796508750000    -0.000000000000000    -0.003954106250000
     0.000000000000000    -0.018071590000000    -0.000000000000000
    -0.003954106250000    -0.000000000000000     0.003048346250000
1 15
     0.000567491250000     0.000000000000000    -0.002555356250000
     0.000000000000000    -0.018226590000000    -0.000000000000000
    -0.002555356250000    -0.000000000000000    -0.035823653750000
1 16
    -0.009316008750000    -0.000000000000000     0.001494393750000
     0.000000000000000    -0.009914590000000    -0.000000000000000
     0.001494393750000    -0.000000000000000    -0.004393153750000
1 17
    -0.138920443125000     0.239246081250000    -0.010761581250000
     0.241725606250000    -0.041660177500000     0.021873600000000
    -0.017031437500000     0.023931587500000     0.182331024375000
1 18
    -0.143146693125000    -0.078786918750000     0.036357918750000
    -0.138604893750000    -0.023192427500000     0.051208100000000
    -0.045384687500000     0.000082337500000     0.110293274375000
1 19
     0.012935056875000     0.004606331250000    -0.000103581250000
     0.021300106250000     0.000826572500000    -0.002027900000000
     0.000585562500000     0.004731837500000    -0.066314225625000
1 20
    -0.015228443125000    -0.002184668750000    -0.004813081250000
    -0.019664393750000     0.000569822500000    -0.009190400000000
     0.010523062500000     0.006100837500000    -0.058967975625000
1 21
     0.104320806875000     0.051439918750000    -0.010988031250000
     0.058659893750000     0.015295822500000    -0.154926150000000
     0.029085587500000    -0.187714412500000    -0.122268475625000
1 22
    -0.069437193125000    -0.001729081250000     0.000728218750000
    -0.007444356250000     0.005152072500000    -0.018516900000000
    -0.005369662500000    -0.004185162500000     0.004162524375000
1 23
     0.207260056875000     0.028020918750000    -0.071534531250000
     0.019089143750000    -0.066970677500000     0.204561350000000
    -0.043411162500000     0.156961587500000    -0.138949725625000
1 24
    -0.068969693125000    -0.002392331250000     0.015749218750000
    -0.001722856250000    -0.005364677500000     0.017928600000000
    -0.003176162500000     0.002325587500000     0.002515774375000
1 25
     0.104320806875000    -0.051439918750000    -0.010988031250000
    -0.058659893750000     0.015295822500000     0.154926150000000
     0.029085587500000     0.187714412500000    -0.122268475625000
1 26
    -0.069437193125000     0.001729081250000     0.000728218750000
     0.007444356250000     0.005152072500000     0.018516900000000
    -0.005369662500000     0.004185162500000     0.004162524375000
1 27
     0.207260056875000    -0.028020918750000    -0.071534531250000
    -0.019089143750000    -0.066970677500000    -0.204561350000000
    -0.043411162500000    -0.156961587500000    -0.138949725625000
1 28
    -0.068969693125000     0.002392331250000     0.015749218750000
     0.001722856250000    -0.005364677500000    -0.017928600000000
    -0.003176162500000    -0.002325587500000     0.002515774375000
1 29
    -0.138920443125000    -0.239246081250000    -0.010761581250000
    -0.241725606250000    -0.041660177500000    -0.021873600000000
    -0.017031437500000    -0.023931587500000     0.182331024375000
1 30
    -0.143146693125000     0.078786918750000     0.036357918750000
     0.138604893750000    -0.023192427500000    -0.051208100000000
    -0.045384687500000    -0.000082337500000     0.110293274375000
1 31
     0.012935056875000    -0.004606331250000    -0.000103581250000
    -0.021300106250000     0.000826572500000     0.002027900000000
     0.000585562500000    -0.004731837500000    -0.066314225625000
1 32
    -0.015228443125000     0.002184668750000    -0.004813081250000
     0.019664393750000     0.000569822500000     0.009190400000000
     0.010523062500000    -0.006100837500000    -0.058967975625000
1 33
     0.006276135000000     0.000000000000000     0.001683681250000
     0.000000000000000     0.044232653750000     0.000000000000000
     0.001502056250000     0.000000000000000    -0.014005166250000
1 34
     0.008428635000000     0.000000000000000    -0.010179818750000
    -0.000000000000000     0.058769153750000     0.000000000000000
     0.002921056250000     0.000000000000000    -0.026920416250000
1 35
    -0.000447115000000     0.000000000000000    -0.001770568750000
    -0.000000000000000     0.013073653750000    -0.000000000000000
    -0.000168193750000     0.000000000000000     0.009863083750000
1 36
    -0.003208615000000    -0.000000000000000     0.003611181250000
     0.000000000000000     0.012982653750000     0.000000000000000
     0.001151556250000     0.000000000000000     0.013392833750000
1 37
    -0.050561865000000     0.000000000000000     0.075031956250000
    -0.000000000000000    -0.077820346250000    -0.000000000000000
     0.076105843750000    -0.000000000000000    -0.430983916250000
1 38
     0.014053385000000     0.000000000000000     0.002275206250000
     0.000000000000000    -0.015000846250000     0.000000000000000
     0.005061593750000    -0.000000000000000     0.000921333750000
1 39
    -0.037320865000000     0.000000000000000     0.027263706250000
     0.000000000000000    -0.067157346250000     0.000000000000000
     0.021301593750000    -0.000000000000000     0.107931583750000
1 40
     0.012330385000000     0.000000000000000    -0.002589293750000
    -0.000000000000000    -0.013485846250000    -0.000000000000000
    -0.005145656250000    -0.000000000000000     0.000434833750000
1 41
    -0.127463599375000    -0.007607859375000    -0.016015740625000
    -0.020067681250000    -0.053676802500000     0.032576284375000
    -0.007862196875000     0.010095018750000    -0.110958547500000
1 42
     0.047066150625000    -0.005347609375000     0.031248009375000
    -0.018018181250000    -0.003251052500000    -0.014321215625000
     0.004420553125000    -0.003540481250000    -0.010500047500000
1 43
    -0.025172099375000     0.001406890625000    -0.001194240625000
     0.014618818750000    -0.005278302500000     0.018049784375000
     0.040912553125000     0.006060268750000     0.051981702500000
1 44
     0.019293650625000    -0.002930859375000     0.006904259375000
     0.000870318750000    -0.003235552500000    -0.000725215625000
    -0.000265946875000     0.004806768750000     0.012951952500000
1 45
    -0.016564599375000    -0.023035859375000    -0.038554240625000
    -0.022663681250000     0.018738447500000     0.020045284375000
    -0.055553946875000     0.023330518750000    -0.037842297500000
1 46
     0.050637150625000     0.011437390625000     0.044994509375000
     0.032285068750000     0.002952447500000     0.030583034375000
    -0.002511946875000    -0.001412231250000    -0.021078047500000
1 47
    -0.018494349375000    -0.001244109375000     0.004600259375000
    -0.032189431250000     0.005785947500000    -0.031704215625000
     0.045853553125000    -0.010164731250000     0.046407452500000
1 48
     0.011019650625000    -0.000094859375000    -0.003890240625000
     0.002517068750000     0.002229697500000    -0.001792465625000
     0.001000553125000     0.000887768750000     0.018029452500000
1 49
    -0.091505099375000     0.012667890625000     0.047173628125000
     0.013489818750000    -0.017554552500000     0.037720465625000
     0.042295346875000     0.010436731250000    -0.056511047500000
1 50
     0.058176650625000    -0.008189109375000    -0.037425621875000
    -0.035063681250000     0.005011697500000     0.023043465625000
     0.023998096875000    -0.003247018750000    -0.022106797500000
1 51
    -0.039670349375000    -0.004734859375000     0.026293878125000
     0.024716818750000     0.005995697500000    -0.038506284375000
    -0.034660403125000    -0.005958768750000     0.049439702500000
1 52
     0.015230150625000     0.001199640625000    -0.010753371875000
    -0.001325931250000     0.001615697500000    -0.002898784375000
    -0.006192653125000     0.001907981250000     0.008741452500000
1 53
    -0.222711349375000     0.179390140625000    -0.075069121875000
     0.174093818750000    -0.233432552500000     0.119214715625000
    -0.067567653125000     0.104887981250000    -0.118181297500000
1 54
     0.055252650625000     0.005658390625000    -0.037391371875000
     0.038771568750000    -0.006743552500000    -0.022190284375000
     0.017079346875000    -0.002114018750000    -0.024033047500000
1 55
    -0.014417099375000    -0.004496359375000     0.009412128125000
    -0.022177181250000    -0.006417802500000     0.028352465625000
    -0.041567903125000     0.007190731250000     0.055824702500000
1 56
     0.004813900625000     0.004146890625000    -0.000329371875000
     0.002963568750000    -0.003389802500000     0.001591215625000
    -0.002940403125000     0.003344231250000     0.007869452500000
1 57
    -0.091505099375000    -0.012667890625000     0.047173628125000
    -0.013489818750000    -0.017554552500000    -0.037720465625000
     0.042295346875000    -0.010436731250000    -0.056511047500000
1 58
     0.058176650625000     0.008189109375000    -0.037425621875000
     0.035063681250000     0.005011697500000    -0.023043465625000
     0.023998096875000     0.003247018750000    -0.022106797500000
1 59
    -0.039670349375000     0.004734859375000     0.026293878125000
    -0.024716818750000     0.005995697500000     0.038506284375000
    -0.034660403125000     0.005958768750000     0.049439702500000
1 60
     0.015230150625000    -0.001199640625000    -0.010753371875000
     0.001325931250000     0.001615697500000     0.002898784375000
    -0.006192653125000    -0.001907981250000     0.008741452500000
1 61
    -0.222711349375000    -0.179390140625000    -0.075069121875000
    -0.174093818750000    -0.233432552500000    -0.119214715625000
    -0.067567653125000    -0.104887981250000    -0.118181297500000
1 62
     0.055252650625000    -0.005658390625000    -0.037391371875000
    -0.038771568750000    -0.006743552500000     0.022190284375000
     0.017079346875000     0.002114018750000    -0.024033047500000
1 63
    -0.014417099375000     0.004496359375000     0.009412128125000
     0.022177181250000    -0.006417802500000    -0.028352465625000
    -0.041567903125000    -0.007190731250000     0.055824702500000
1 64
     0.004813900625000    -0.004146890625000    -0.000329371875000
    -0.002963568750000    -0.003389802500000    -0.001591215625000
    -0.002940403125000    -0.003344231250000     0.007869452500000
1 65
    -0.016564599375000     0.023035859375000    -0.038554240625000
     0.022663681250000     0.018738447500000    -0.020045284375000
    -0.055553946875000    -0.023330518750000    -0.037842297500000
1 66
     0.050637150625000    -0.011437390625000     0.044994509375000
    -0.032285068750000     0.002952447500000    -0.030583034375000
    -0.002511946875000     0.001412231250000    -0.021078047500000
1 67
    -0.018494349375000     0.001244109375000     0.004600259375000
     0.032189431250000     0.005785947500000     0.031704215625000
     0.045853553125000     0.010164731250000     0.046407452500000
1 68
     0.011019650625000     0.000094859375000    -0.003890240625000
    -0.002517068750000     0.002229697500000     0.001792465625000
     0.001000553125000    -0.000887768750000     0.018029452500000
1 69
    -0.127463599375000     0.007607859375000    -0.016015740625000
     0.020067681250000    -0.053676802500000    -0.032576284375000
    -0.007862196875000    -0.010095018750000    -0.110958547500000
1 70
     0.047066150625000     0.005347609375000     0.031248009375000
     0.018018181250000    -0.003251052500000     0.014321215625000
     0.004420553125000     0.003540481250000    -0.010500047500000
1 71
    -0.025172099375000    -0.001406890625000    -0.001194240625000
    -0.014618818750000    -0.005278302500000    -0.018049784375000
     0.040912553125000    -0.006060268750000     0.051981702500000
1 72
     0.019293650625000     0.002930859375000     0.006904259375000
    -0.000870318750000    -0.003235552500000     0.000725215625000
    -0.000265946875000    -0.004806768750000     0.012951952500000
1 73
    -0.027098115000000     0.000000000000000     0.005085206250000
     0.000000000000000     0.067417153750000    -0.000000000000000
     0.001523343750000    -0.000000000000000    -0.004948416250000
1 74
     0.008428885000000     0.000000000000000    -0.002079293750000
     0.000000000000000     0.013130653750000     0.000000000000000
     0.001976843750000    -0.000000000000000    -0.000312666250000
1 75
    -0.017741615000000    -0.000000000000000     0.004098206250000
     0.000000000000000     0.031238653750000     0.000000000000000
     0.000404093750000    -0.000000000000000     0.025794583750000
1 76
     0.008949635000000     0.000000000000000     0.000187206250000
    -0.000000000000000     0.012748153750000    -0.000000000000000
    -0.001228656250000    -0.000000000000000     0.000066333750000
1 77
    -0.484945115000000    -0.000000000000000    -0.123485568750000
    -0.000000000000000    -0.086096846250000    -0.000000000000000
    -0.100337193750000     0.000000000000000    -0.072086916250000
1 78
     0.080318635000000     0.000000000000000    -0.003933068750000
     0.000000000000000    -0.047499846250000     0.000000000000000
    -0.015397193750000     0.000000000000000    -0.028911916250000
1 79
    -0.005672865000000     0.000000000000000    -0.007025068750000
     0.000000000000000    -0.015785846250000     0.000000000000000
    -0.000895693750000     0.000000000000000     0.016535833750000
1 80
     0.001537385000000    -0.000000000000000     0.008781931250000
     0.000000000000000    -0.014536346250000    -0.000000000000000
     0.001986806250000     0.000000000000000     0.015386083750000
2 1
    -0.059393008750000    -0.000000000000000    -0.004633856250000
    -0.000000000000000     0.014471410000000    -0.000000000000000
    -0.004633856250000    -0.000000000000000     0.005565846250000
2 2
     1.534549991250000    -0.000000000000000     0.212614393750000
    -0.000000000000000     1.045753409999999    -0.000000000000000
     0.212614393750000    -0.000000000000000     1.024485346250001
2 3
    -0.011558008750000    -0.000000000000000     0.001147393750000
    -0.000000000000000     0.006460410000000    -0.000000000000000
     0.001147393750000    -0.000000000000000    -0.005038153750000
2 4
     0.005392991250000     0.000000000000000    -0.000648356250000
    -0.000000000000000     0.013888410000000    -0.000000000000000
    -0.000648356250000    -0.000000000000000    -0.070732153750000
2 5
    -0.018034758750000     0.000000000000000     0.014299993750000
     0.000000000000000    -0.021165090000000    -0.000000000000000
     0.016982506250000     0.000000000000000    -0.002206403750000
2 6
    -0.002508758750000     0.000000000000000    -0.023025756250000
     0.000000000000000    -0.047002090000000    -0.000000000000000
    -0.029632743750000     0.000000000000000    -0.014161403750000
2 7
    -0.018034758750000     0.000000000000000    -0.016982506250000
     0.000000000000000    -0.021165090000000    -0.000000000000000
    -0.014299993750000     0.000000000000000    -0.002206403750000
2 8
    -0.002508758750000     0.000000000000000     0.029632743750000
    -0.000000000000000    -0.047002090000000    -0.000000000000000
     0.023025756250000     0.000000000000000    -0.014161403750000
2 9
    -0.048304508750000     0.000000000000000     0.059464993750000
     0.000000000000000     0.044407410000000    -0.000000000000000
     0.061666256250000     0.000000000000000    -0.020839903750000
2 10
    -0.048304508750000    -0.000000000000000    -0.061666256250000
     0.000000000000000     0.044407410000000    -0.000000000000000
    -0.059464993750000     0.000000000000000    -0.020839903750000
2 11
    -0.020148258750000     0.000000000000000    -0.059406756250000
    -0.000000000000000     0.018405410000000    -0.000000000000000
    -0.042206993750000     0.000000000000000    -0.021519653750000
2 12
    -0.020148258750000    -0.000000000000000     0.042206993750000
     0.000000000000000     0.018405410000000    -0.000000000000000
     0.059406756250000     0.000000000000000    -0.021519653750000
2 13
    -0.038796508750000    -0.000000000000000    -0.003954106250000
     0.000000000000000    -0.018071590000000    -0.000000000000000
    -0.003954106250000    -0.000000000000000     0.003048346250000
2 14
     0.054608991250000     0.000000000000000     0.025780643750000
     0.000000000000000    -0.127873590000000    -0.000000000000000
     0.025780643750000    -0.000000000000000     0.062511346250000
2 15
    -0.009316008750000    -0.000000000000000     0.001494393750000
    -0.000000000000000    -0.009914590000000    -0.000000000000000
     0.001494393750000    -0.000000000000000    -0.004393153750000
2 16
     0.000567491250000     0.000000000000000    -0.002555356250000
     0.000000000000000    -0.018226590000000    -0.000000000000000
    -0.002555356250000    -0.000000000000000    -0.035823653750000
2 17
    -0.143146693125000    -0.078786918750000     0.036357918750000
    -0.138604893750000    -0.023192427500000     0.051208100000000
    -0.045384687500000     0.000082337500000     0.110293274375000
2 18
    -0.138920443125000     0.239246081250000    -0.010761581250000
     0.241725606250000    -0.041660177500000     0.021873600000000
    -0.017031437500000     0.023931587500000     0.182331024375000
2 19
    -0.015228443125000    -0.002184668750000    -0.004813081250000
    -0.019664393750000     0.000569822500000    -0.009190400000000
     0.010523062500000     0.006100837500000    -0.058967975625000
2 20
     0.012935056875000     0.004606331250000    -0.000103581250000
     0.021300106250000     0.000826572500000    -0.002027900000000
     0.000585562500000     0.004731837500000    -0.066314225625000
2 21
    -0.069437193125000    -0.001729081250000     0.000728218750000
    -0.007444356250000     0.005152072500000    -0.018516900000000
    -0.005369662500000    -0.004185162500000     0.004162524375000
2 22
     0.104320806875000     0.051439918750000    -0.010988031250000
     0.058659893750000     0.015295822500000    -0.154926150000000
     0.029085587500000    -0.187714412500000    -0.122268475625000
2 23
    -0.068969693125000    -0.002392331250000     0.015749218750000
    -0.001722856250000    -0.005364677500000     0.017928600000000
    -0.003176162500000     0.002325587500000     0.002515774375000
2 24
     0.207260056875000     0.028020918750000    -0.071534531250000
     0.019089143750000    -0.066970677500000     0.204561350000000
    -0.043411162500000     0.156961587500000    -0.138949725625000
2 25
    -0.069437193125000     0.001729081250000     0.000728218750000
     0.007444356250000     0.005152072500000     0.018516900000000
    -0.005369662500000     0.004185162500000     0.004162524375000
2 26
     0.104320806875000    -0.051439918750000    -0.010988031250000
    -0.058659893750000     0.015295822500000     0.154926150000000
     0.029085587500000     0.187714412500000    -0.122268475625000
2 27
    -0.068969693125000     0.002392331250000     0.015749218750000
     0.001722856250000    -0.005364677500000    -0.017928600000000
    -0.003176162500000    -0.002325587500000     0.002515774375000
2 28
     0.207260056875000    -0.028020918750000    -0.071534531250000
    -0.019089143750000    -0.066970677500000    -0.204561350000000
    -0.043411162500000    -0.156961587500000    -0.138949725625000
2 29
    -0.143146693125000     0.078786918750000     0.036357918750000
     0.138604893750000    -0.023192427500000    -0.051208100000000
    -0.045384687500000    -0.000082337500000     0.110293274375000
2 30
    -0.138920443125000    -0.239246081250000    -0.010761581250000
    -0.241725606250000    -0.041660177500000    -0.021873600000000
    -0.017031437500000    -0.023931587500000     0.182331024375000
2 31
    -0.015228443125000     0.002184668750000    -0.004813081250000
     0.019664393750000     0.000569822500000     0.009190400000000
     0.010523062500000    -0.006100837500000    -0.058967975625000
2 32
     0.012935056875000    -0.004606331250000    -0.000103581250000
    -0.021300106250000     0.000826572500000     0.002027900000000
     0.000585562500000    -0.004731837500000    -0.066314225625000
2 33
     0.008428635000000     0.000000000000000    -0.010179818750000
    -0.000000000000000     0.058769153750000     0.000000000000000
     0.002921056250000     0.000000000000000    -0.026920416250000
2 34
     0.006276135000000     0.000000000000000     0.001683681250000
     0.000000000000000     0.044232653750000     0.000000000000000
     0.001502056250000     0.000000000000000    -0.014005166250000
2 35
    -0.003208615000000     0.000000000000000     0.003611181250000
     0.000000000000000     0.012982653750000     0.000000000000000
     0.001151556250000     0.000000000000000     0.013392833750000
2 36
    -0.000447115000000     0.000000000000000    -0.001770568750000
    -0.000000000000000     0.013073653750000    -0.000000000000000
    -0.000168193750000     0.000000000000000     0.009863083750000
2 37
     0.014053385000000     0.000000000000000     0.002275206250000
     0.000000000000000    -0.015000846250000     0.000000000000000
     0.005061593750000    -0.000000000000000     0.000921333750000
2 38
    -0.050561865000000     0.000000000000000     0.075031956250000
    -0.000000000000000    -0.077820346250000     0.000000000000000
     0.076105843750000    -0.000000000000000    -0.430983916250000
2 39
     0.012330385000000     0.000000000000000    -0.002589293750000
    -0.000000000000000    -0.013485846250000    -0.000000000000000
    -0.005145656250000    -0.000000000000000     0.000434833750000
2 40
    -0.037320865000000     0.000000000000000     0.027263706250000
     0.000000000000000    -0.067157346250000     0.000000000000000
     0.021301593750000    -0.000000000000000     0.107931583750000
2 41
     0.047066150625000    -0.005347609375000     0.031248009375000
    -0.018018181250000    -0.003251052500000    -0.014321215625000
     0.004420553125000    -0.003540481250000    -0.010500047500000
2 42
    -0.127463599375000    -0.007607859375000    -0.016015740625000
    -0.020067681250000    -0.053676802500000     0.032576284375000
    -0.007862196875000     0.010095018750000    -0.110958547500000
2 43
     0.019293650625000    -0.002930859375000     0.006904259375000
     0.000870318750000    -0.003235552500000    -0.000725215625000
    -0.000265946875000     0.004806768750000     0.012951952500000
2 44
    -0.025172099375000     0.001406890625000    -0.001194240625000
     0.014618818750000    -0.005278302500000     0.018049784375000
     0.040912553125000     0.006060268750000     0.051981702500000
2 45
     0.050637150625000     0.011437390625000     0.044994509375000
     0.032285068750000     0.002952447500000     0.030583034375000
    -0.002511946875000    -0.001412231250000    -0.021078047500000
2 46
    -0.016564599375000    -0.023035859375000    -0.038554240625000
    -0.022663681250000     0.018738447500000     0.020045284375000
    -0.055553946875000     0.023330518750000    -0.037842297500000
2 47
     0.011019650625000    -0.000094859375000    -0.003890240625000
     0.002517068750000     0.002229697500000    -0.001792465625000
     0.001000553125000     0.000887768750000     0.018029452500000
2 48
    -0.018494349375000    -0.001244109375000     0.004600259375000
    -0.032189431250000     0.005785947500000    -0.031704215625000
     0.045853553125000    -0.010164731250000     0.046407452500000
2 49
     0.058176650625000    -0.008189109375000    -0.037425621875000
    -0.035063681250000     0.005011697500000     0.023043465625000
     0.023998096875000    -0.003247018750000    -0.022106797500000
2 50
    -0.091505099375000     0.012667890625000     0.047173628125000
     0.013489818750000    -0.017554552500000     0.037720465625000
     0.042295346875000     0.010436731250000    -0.056511047500000
2 51
     0.015230150625000     0.001199640625000    -0.010753371875000
    -0.001325931250000     0.001615697500000    -0.002898784375000
    -0.006192653125000     0.001907981250000     0.008741452500000
2 52
    -0.039670349375000    -0.004734859375000     0.026293878125000
     0.024716818750000     0.005995697500000    -0.038506284375000
    -0.034660403125000    -0.005958768750000     0.049439702500000
2 53
     0.055252650625000     0.005658390625000    -0.037391371875000
     0.038771568750000    -0.006743552500000    -0.022190284375000
     0.017079346875000    -0.002114018750000    -0.024033047500000
2 54
    -0.222711349375000     0.179390140625000    -0.075069121875000
     0.174093818750000    -0.233432552500000     0.119214715625000
    -0.067567653125000     0.104887981250000    -0.118181297500000
2 55
     0.004813900625000     0.004146890625000    -0.000329371875000
     0.002963568750000    -0.003389802500000     0.001591215625000
    -0.002940403125000     0.003344231250000     0.007869452500000
2 56
    -0.014417099375000    -0.004496359375000     0.009412128125000
    -0.022177181250000    -0.006417802500000     0.028352465625000
    -0.041567903125000     0.007190731250000     0.055824702500000
2 57
     0.058176650625000     0.008189109375000    -0.037425621875000
     0.035063681250000     0.005011697500000    -0.023043465625000
     0.023998096875000     0.003247018750000    -0.022106797500000
2 58
    -0.091505099375000    -0.012667890625000     0.047173628125000
    -0.013489818750000    -0.017554552500000    -0.037720465625000
     0.042295346875000    -0.010436731250000    -0.056511047500000
2 59
     0.015230150625000    -0.001199640625000    -0.010753371875000
     0.001325931250000     0.001615697500000     0.002898784375000
    -0.006192653125000    -0.001907981250000     0.008741452500000
2 60
    -0.039670349375000     0.004734859375000     0.026293878125000
    -0.024716818750000     0.005995697500000     0.038506284375000
    -0.034660403125000     0.005958768750000     0.049439702500000
2 61
     0.055252650625000    -0.005658390625000    -0.037391371875000
    -0.038771568750000    -0.006743552500000     0.022190284375000
     0.017079346875000     0.002114018750000    -0.024033047500000
2 62
    -0.222711349375000    -0.179390140625000    -0.075069121875000
    -0.174093818750000    -0.233432552500000    -0.119214715625000
    -0.067567653125000    -0.104887981250000    -0.118181297500000
2 63
     0.004813900625000    -0.004146890625000    -0.000329371875000
    -0.002963568750000    -0.003389802500000    -0.001591215625000
    -0.002940403125000    -0.003344231250000     0.007869452500000
2 64
    -0.014417099375000     0.004496359375000     0.009412128125000
     0.022177181250000    -0.006417802500000    -0.028352465625000
    -0.041567903125000    -0.007190731250000     0.055824702500000
2 65
     0.050637150625000    -0.011437390625000     0.044994509375000
    -0.032285068750000     0.002952447500000    -0.030583034375000
    -0.002511946875000     0.001412231250000    -0.021078047500000
2 66
    -0.016564599375000     0.023035859375000    -0.038554240625000