nqpoint: 404    
npath: 4      
segment_nqpoint:
- 101
- 101
- 101
- 101
labels:
- [ '$\Gamma$', 'X' ]
- [ 'X', 'K' ]
- [ 'K', '$\Gamma$' ]
- [ '$\Gamma$', 'L' ]
reciprocal_lattice:
- [   0.25011959,  -0.14440661,  -0.10211090 ] # a*
- [   0.00000000,   0.28881323,  -0.10211090 ] # b*
- [   0.00000000,  -0.00000000,   0.30633269 ] # c*
natom: 2      
lattice:
- [     3.998087430433594,    -0.000000000000381,    -0.000000000000269 ] # a
- [     1.999043715266137,     3.462445281334601,     0.000000000000099 ] # b
- [     1.999043715266137,     1.154148427078513,     3.264424717202195 ] # c
points:
- symbol: Na # 1
  coordinates: [  0.000000000000000,  0.000000000000000,  0.000000000000000 ]
  mass: 22.989769
- symbol: Cl # 2
  coordinates: [  0.500000000000000,  0.500000000000000,  0.500000000000000 ]
  mass: 35.453000

phonon:
- q-position: [    0.0001000,    0.0001000,    1.0000000 ]
  distance:    0.0000000
  band:
  - # 1
    frequency:   -0.0075006238
    eigenvector:
    - # atom 1
      - [  0.01228371289353, -0.00000000000000 ]
      - [  0.00709200485060, -0.00000000010183 ]
      - [  0.62703398752593,  0.00000000792427 ]
    - # atom 2
      - [ -0.01525394086259,  0.00000000000000 ]
      - [ -0.00880686674712,  0.00000000012646 ]
      - [ -0.77866356582181, -0.00000000984052 ]
  - # 2
    frequency:   -0.0034712307
    eigenvector:
    - # atom 1
      - [ -0.31359705283156,  0.00000000000000 ]
      - [  0.54316604336830, -0.00000000753844 ]
      - [ -0.00000000008489, -0.00000000000295 ]
    - # atom 2
      - [  0.38943148083569,  0.00000000000000 ]
      - [ -0.67451512920105,  0.00000000936139 ]
      - [  0.00000000010642,  0.00000000000366 ]
  - # 3
    frequency:   -0.0032509586
    eigenvector:
    - # atom 1
      - [  0.54302709513856,  0.00000000000000 ]
      - [  0.31351683103433, -0.00000000435113 ]
      - [ -0.01418385727736, -0.00000000018096 ]
    - # atom 2
      - [ -0.67434265163980,  0.00000000000000 ]
      - [ -0.38933190086867,  0.00000000540332 ]
      - [  0.01761385652547,  0.00000000022472 ]
  - # 4
    frequency:    4.5666775432
    eigenvector:
    - # atom 1
      - [ -0.38943242831557,  0.00000000000000 ]
      - [ -0.22483666252818, -0.00000000031762 ]
      - [ -0.63593874746526, -0.00000000022459 ]
    - # atom 2
      - [ -0.31359781582815,  0.00000000000000 ]
      - [ -0.18105396767412, -0.00000000025577 ]
      - [ -0.51210217645410, -0.00000000018086 ]
  - # 5
    frequency:    4.5666778947
    eigenvector:
    - # atom 1
      - [  0.38943051241019, -0.00000000000000 ]
      - [ -0.67451568831894, -0.00000000031762 ]
      - [ -0.00000159437174, -0.00000000022459 ]
    - # atom 2
      - [  0.31359627298970, -0.00000000000000 ]
      - [ -0.54316649360794, -0.00000000025577 ]
      - [ -0.00000128389777, -0.00000000018086 ]
  - # 6
    frequency:    7.4037693991
    eigenvector:
    - # atom 1
      - [  0.55073935085344,  0.00000000000000 ]
      - [  0.31796951245651, -0.00000000000000 ]
      - [ -0.44967666845173,  0.00000000000000 ]
    - # atom 2
      - [  0.44349319574992,  0.00000000000000 ]
      - [  0.25605091594075, -0.00000000000000 ]
      - [ -0.36211070709009, -0.00000000000000 ]

- q-position: [    0.0050990,    0.0050990,    1.0000000 ]
  distance:    0.0017683
  band:
  - # 1
    frequency:    0.0548136169
    eigenvector:
    - # atom 1
      - [ -0.31196618523250,  0.00000000000000 ]
      - [ -0.18011376247013,  0.00000000028015 ]
      - [ -0.51337961971006,  0.00000000003514 ]
    - # atom 2
      - [  0.38744703330114, -0.00000000000001 ]
      - [  0.22369265077336, -0.00000000034794 ]
      - [  0.63759226178085, -0.00000000004365 ]
  - # 2
    frequency:    0.0550806554
    eigenvector:
    - # atom 1
      - [ -0.31357702512864,  0.00000000000000 ]
      - [  0.54313133815407, -0.00000000037936 ]
      - [ -0.00000000102149, -0.00000000016329 ]
    - # atom 2
      - [  0.38944762204561,  0.00000000000002 ]
      - [ -0.67454306646015,  0.00000000047113 ]
      - [  0.00000000126965,  0.00000000020279 ]
  - # 3
    frequency:    0.0931442425
    eigenvector:
    - # atom 1
      - [ -0.44461961161608,  0.00000000000000 ]
      - [ -0.25670125246446,  0.00000000007102 ]
      - [  0.36024411434086,  0.00000000009052 ]
    - # atom 2
      - [  0.55215513727127, -0.00000000000000 ]
      - [  0.31878691715059, -0.00000000008815 ]
      - [ -0.44737193907406, -0.00000000011241 ]
  - # 4
    frequency:    4.5668979746
    eigenvector:
    - # atom 1
      - [  0.38944856847985,  0.00000000000000 ]
      - [  0.22484596507637,  0.00000001637246 ]
      - [  0.63596509646772,  0.00000001157710 ]
    - # atom 2
      - [  0.31357778830058,  0.00000000000001 ]
      - [  0.18104239210006,  0.00000001318286 ]
      - [  0.51206945185187,  0.00000000932169 ]
  - # 5
    frequency:    4.5668983227
    eigenvector:
    - # atom 1
      - [ -0.38944663798116,  0.00000000000000 ]
      - [  0.67454363460716,  0.00000001637249 ]
      - [  0.00000160567131,  0.00000001157715 ]
    - # atom 2
      - [ -0.31357623277666,  0.00000000000002 ]
      - [  0.54313179561639,  0.00000001318290 ]
      - [  0.00000129286078,  0.00000000932174 ]
  - # 6
    frequency:    7.4035051206
    eigenvector:
    - # atom 1
      - [  0.55074592892139,  0.00000000000000 ]
      - [  0.31797331030581, -0.00000000000001 ]
      - [ -0.44968204347221,  0.00000000000001 ]
    - # atom 2
      - [  0.44348502497404,  0.00000000000001 ]
      - [  0.25604619854110, -0.00000000000002 ]
      - [ -0.36210403522296, -0.00000000000001 ]

- q-position: [    0.0100980,    0.0100980,    1.0000000 ]
  distance:    0.0035365
  band:
  - # 1
    frequency:    0.1090471182
    eigenvector:
    - # atom 1
      - [  0.31311903942422,  0.00000000000000 ]
      - [  0.18077936561156, -0.00000000048227 ]
      - [  0.51230029132599, -0.00000000025885 ]
    - # atom 2
      - [ -0.38899797417959,  0.00000000000003 ]
      - [ -0.22458808996808,  0.00000000059914 ]
      - [ -0.63644674997607,  0.00000000032158 ]
  - # 2
    frequency:    0.1091783196
    eigenvector:
    - # atom 1
      - [  0.31351874400723,  0.00000000000000 ]
      - [ -0.54303038982248,  0.00000000053223 ]
      - [  0.00000000276179,  0.00000000032338 ]
    - # atom 2
      - [ -0.38949454407766, -0.00000000000005 ]
      - [  0.67462433473683, -0.00000000066118 ]
      - [ -0.00000000343207, -0.00000000040172 ]
  - # 3
    frequency:    0.1846062503
    eigenvector:
    - # atom 1
      - [ -0.44374358851362,  0.00000000000000 ]
      - [ -0.25619548029202,  0.00000000003581 ]
      - [  0.36162323714284,  0.00000000004585 ]
    - # atom 2
      - [  0.55111583915180, -0.00000000000000 ]
      - [  0.31818687810352, -0.00000000004440 ]
      - [ -0.44912423707485, -0.00000000005694 ]
  - # 4
    frequency:    4.5675398004
    eigenvector:
    - # atom 1
      - [  0.38949548694307,  0.00000000000000 ]
      - [  0.22487306044837,  0.00000003283331 ]
      - [  0.63604172216149,  0.00000002321669 ]
    - # atom 2
      - [  0.31351950498523,  0.00000000000002 ]
      - [  0.18100874839448,  0.00000002642878 ]
      - [  0.51197426986509,  0.00000001868797 ]
  - # 5
    frequency:    4.5675401451
    eigenvector:
    - # atom 1
      - [ -0.38949356170967,  0.00000000000000 ]
      - [  0.67462490190441,  0.00000003283336 ]
      - [  0.00000160073245,  0.00000002321680 ]
    - # atom 2
      - [ -0.31351795326348,  0.00000000000003 ]
      - [  0.54303084635630,  0.00000002642886 ]
      - [  0.00000128848927,  0.00000001868806 ]
  - # 6
    frequency:    7.4027308755
    eigenvector:
    - # atom 1
      - [  0.55076503429043,  0.00000000000000 ]
      - [  0.31798434079577, -0.00000000000002 ]
      - [ -0.44969764679497,  0.00000000000001 ]
    - # atom 2
      - [  0.44346129597655,  0.00000000000002 ]
      - [  0.25603249859801, -0.00000000000005 ]
      - [ -0.36208466014355, -0.00000000000002 ]

- q-position: [    0.0150970,    0.0150970,    1.0000000 ]
  distance:    0.0053048
  band:
  - # 1
    frequency:    0.1629970779
    eigenvector:
    - # atom 1
      - [  0.31324909435858,  0.00000000000000 ]
      - [  0.18085445758229, -0.00000000068802 ]
      - [  0.51195990150451, -0.00000000043164 ]
    - # atom 2
      - [ -0.38935536380111,  0.00000000000004 ]
      - [ -0.22479443483068,  0.00000000085518 ]
      - [ -0.63634392592064,  0.00000000053651 ]
  - # 2
    frequency:    0.1630828832
    eigenvector:
    - # atom 1
      - [ -0.31342303411005, -0.00000000000000 ]
      - [  0.54286461069841, -0.00000000072139 ]
      - [ -0.00000000609888, -0.00000000047471 ]
    - # atom 2
      - [  0.38957156936852,  0.00000000000007 ]
      - [ -0.67475774058566,  0.00000000089662 ]
      - [  0.00000000758165,  0.00000000059000 ]
  - # 3
    frequency:    0.2758781377
    eigenvector:
    - # atom 1
      - [ -0.44354531971736,  0.00000000000000 ]
      - [ -0.25608100974898,  0.00000000002396 ]
      - [  0.36185220932963,  0.00000000003064 ]
    - # atom 2
      - [  0.55094913460328, -0.00000000000000 ]
      - [  0.31809063118740, -0.00000000002965 ]
      - [ -0.44947352072923, -0.00000000003805 ]
  - # 4
    frequency:    4.5685957278
    eigenvector:
    - # atom 1
      - [  0.38957249871153,  0.00000000000000 ]
      - [  0.22491755044268,  0.00000004978578 ]
      - [  0.63616750405379,  0.00000003520391 ]
    - # atom 2
      - [  0.31342378456807,  0.00000000000002 ]
      - [  0.18095350700897,  0.00000004005430 ]
      - [  0.51181796578928,  0.00000002832268 ]
  - # 5
    frequency:    4.5685960694
    eigenvector:
    - # atom 1
      - [ -0.38957059624999,  0.00000000000000 ]
      - [  0.67475830241313,  0.00000004978585 ]
      - [  0.00000158147860,  0.00000003520407 ]
    - # atom 2
      - [ -0.31342225120548,  0.00000000000005 ]
      - [  0.54286506270633,  0.00000004005444 ]
      - [  0.00000127235087,  0.00000002832281 ]
  - # 6
    frequency:    7.4014416139
    eigenvector:
    - # atom 1
      - [  0.55079630964150,  0.00000000000000 ]
      - [  0.31800239762813, -0.00000000000002 ]
      - [ -0.44972318668067,  0.00000000000002 ]
    - # atom 2
      - [  0.44342244847917,  0.00000000000003 ]
      - [  0.25601006998494, -0.00000000000007 ]
      - [ -0.36205294088142, -0.00000000000003 ]

- q-position: [    0.0200960,    0.0200960,    1.0000000 ]
  distance:    0.0070730
  band:
  - # 1
    frequency:    0.2166860622
    eigenvector:
    - # atom 1
      - [  0.31319573081031,  0.00000000000000 ]
      - [  0.18082365508800, -0.00000000087992 ]
      - [  0.51168066825312, -0.00000000058106 ]
    - # atom 2
      - [ -0.38955876879452,  0.00000000000005 ]
      - [ -0.22491187942859,  0.00000000109445 ]
      - [ -0.63643754276916,  0.00000000072274 ]
  - # 2
    frequency:    0.2167491626
    eigenvector:
    - # atom 1
      - [ -0.31329123927090, -0.00000000000000 ]
      - [  0.54263632837594, -0.00000000090493 ]
      - [ -0.00000001102357, -0.00000000061334 ]
    - # atom 2
      - [  0.38967757208085,  0.00000000000009 ]
      - [ -0.67494133399871,  0.00000000112552 ]
      - [  0.00000001371233,  0.00000000076283 ]
  - # 3
    frequency:    0.3669279992
    eigenvector:
    - # atom 1
      - [ -0.44343665284967,  0.00000000000000 ]
      - [ -0.25601827090376,  0.00000000001801 ]
      - [  0.36189930493635,  0.00000000002297 ]
    - # atom 2
      - [  0.55092315610360, -0.00000000000000 ]
      - [  0.31807563249378, -0.00000000002223 ]
      - [ -0.44962099710984, -0.00000000002854 ]
  - # 4
    frequency:    4.5700537847
    eigenvector:
    - # atom 1
      - [  0.38967847388604,  0.00000000000000 ]
      - [  0.22497879208489,  0.00000006736427 ]
      - [  0.63634060367383,  0.00000004763380 ]
    - # atom 2
      - [  0.31329196765411,  0.00000000000003 ]
      - [  0.18087744942746,  0.00000005415926 ]
      - [  0.51160273407197,  0.00000003829639 ]
  - # 5
    frequency:    4.5700541232
    eigenvector:
    - # atom 1
      - [ -0.38967661982329,  0.00000000000000 ]
      - [  0.67494188378223,  0.00000006736437 ]
      - [  0.00000154128195,  0.00000004763401 ]
    - # atom 2
      - [ -0.31329047368013,  0.00000000000007 ]
      - [  0.54263677038785,  0.00000005415943 ]
      - [  0.00000123915271,  0.00000003829657 ]
  - # 6
    frequency:    7.3996290309
    eigenvector:
    - # atom 1
      - [  0.55083916660013,  0.00000000000000 ]
      - [  0.31802714110474, -0.00000000000003 ]
      - [ -0.44975818273410,  0.00000000000003 ]
    - # atom 2
      - [  0.44336920692130,  0.00000000000005 ]
      - [  0.25597933095717, -0.00000000000009 ]
      - [ -0.36200946893755, -0.00000000000005 ]

- q-position: [    0.0250950,    0.0250950,    1.0000000 ]
  distance:    0.0088413
  band:
  - # 1
    frequency:    0.2700608421
    eigenvector:
    - # atom 1
      - [  0.31306559896081,  0.00000000000000 ]
      - [  0.18074853271358, -0.00000000103370 ]
      - [  0.51138023079330, -0.00000000069809 ]
    - # atom 2
      - [ -0.38973678085276,  0.00000000000006 ]
      - [ -0.22501466631286,  0.00000000128685 ]
      - [ -0.63661903821488,  0.00000000086906 ]
  - # 2
    frequency:    0.2701103409
    eigenvector:
    - # atom 1
      - [ -0.31312521204051, -0.00000000000000 ]
      - [  0.54234875149352, -0.00000000105369 ]
      - [ -0.00000001758830, -0.00000000072386 ]
    - # atom 2
      - [  0.38981100394457,  0.00000000000011 ]
      - [ -0.67517243319151,  0.00000000131167 ]
      - [  0.00000002189675,  0.00000000090107 ]
  - # 3
    frequency:    0.4576958635
    eigenvector:
    - # atom 1
      - [ -0.44334464396140,  0.00000000000000 ]
      - [ -0.25596514954732,  0.00000000001444 ]
      - [  0.36188635248274,  0.00000000001835 ]
    - # atom 2
      - [  0.55094526205661, -0.00000000000000 ]
      - [  0.31808839537170, -0.00000000001775 ]
      - [ -0.44971627469097, -0.00000000002279 ]
  - # 4
    frequency:    4.5718974925
    eigenvector:
    - # atom 1
      - [ -0.38981187101511, -0.00000000000000 ]
      - [ -0.22505587956290, -0.00000008559919 ]
      - [ -0.63655849264887, -0.00000006052785 ]
    - # atom 2
      - [ -0.31312591232607, -0.00000000000004 ]
      - [ -0.18078163558624, -0.00000006875968 ]
      - [ -0.51133159983633, -0.00000004862045 ]
  - # 5
    frequency:    4.5718978280
    eigenvector:
    - # atom 1
      - [  0.38981007725002,  0.00000000000000 ]
      - [ -0.67517296821637, -0.00000008559931 ]
      - [ -0.00000149135342, -0.00000006052811 ]
    - # atom 2
      - [  0.31312446765149, -0.00000000000008 ]
      - [ -0.54234918126473, -0.00000006875989 ]
      - [ -0.00000119796574, -0.00000004862067 ]
  - # 6
    frequency:    7.3972816656
    eigenvector:
    - # atom 1
      - [  0.55089279165067,  0.00000000000000 ]
      - [  0.31805810154212, -0.00000000000004 ]
      - [ -0.44980197073256,  0.00000000000004 ]
    - # atom 2
      - [  0.44330257371188,  0.00000000000006 ]
      - [  0.25594086025577, -0.00000000000011 ]
      - [ -0.36195506277413, -0.00000000000006 ]

- q-position: [    0.0300940,    0.0300940,    1.0000000 ]
  distance:    0.0106096
  band:
  - # 1
    frequency:    0.3230575412
    eigenvector:
    - # atom 1
      - [  0.31288692242898,  0.00000000000000 ]
      - [  0.18064538529213, -0.00000000114072 ]
      - [  0.51104129275219, -0.00000000077931 ]
    - # atom 2
      - [ -0.38991959904393,  0.00000000000008 ]
      - [ -0.22512023083604,  0.00000000142155 ]
      - [ -0.63685901390928,  0.00000000097118 ]
  - # 2
    frequency:    0.3230979982
    eigenvector:
    - # atom 1
      - [ -0.31292728954215,  0.00000000000000 ]
      - [  0.54200592814813, -0.00000000115734 ]
      - [ -0.00000002573581, -0.00000000080072 ]
    - # atom 2
      - [  0.38996991762740,  0.00000000000014 ]
      - [ -0.67544766537295,  0.00000000144219 ]
      - [  0.00000003207294,  0.00000000099778 ]
  - # 3
    frequency:    0.5481183681
    eigenvector:
    - # atom 1
      - [ -0.44325227978657,  0.00000000000000 ]
      - [ -0.25591182306604,  0.00000000001206 ]
      - [  0.36184428087364,  0.00000000001525 ]
    - # atom 2
      - [  0.55099171610860, -0.00000000000000 ]
      - [  0.31811521563109, -0.00000000001476 ]
      - [ -0.44979563141693, -0.00000000001894 ]
  - # 4
    frequency:    4.5741061061
    eigenvector:
    - # atom 1
      - [ -0.38997073830049,  0.00000000000000 ]
      - [ -0.22514769640159, -0.00000010461763 ]
      - [ -0.63681799107395, -0.00000007397593 ]
    - # atom 2
      - [ -0.31292795217282, -0.00000000000005 ]
      - [ -0.18066742104544, -0.00000008394937 ]
      - [ -0.51100837961882, -0.00000005936118 ]
  - # 5
    frequency:    4.5741064387
    eigenvector:
    - # atom 1
      - [  0.38996902573741, -0.00000000000000 ]
      - [ -0.67544818030361, -0.00000010461776 ]
      - [ -0.00000142434184, -0.00000007397625 ]
    - # atom 2
      - [  0.31292657385534, -0.00000000000010 ]
      - [ -0.54200634134829, -0.00000008394962 ]
      - [ -0.00000114294786, -0.00000005936144 ]
  - # 6
    frequency:    7.3943850370
    eigenvector:
    - # atom 1
      - [  0.55095615427321,  0.00000000000000 ]
      - [  0.31809468396931, -0.00000000000005 ]
      - [ -0.44985370926970,  0.00000000000004 ]
    - # atom 2
      - [  0.44322381990467,  0.00000000000007 ]
      - [  0.25589539172398, -0.00000000000013 ]
      - [ -0.36189076020089, -0.00000000000007 ]

- q-position: [    0.0350930,    0.0350930,    1.0000000 ]
  distance:    0.0123778
  band:
  - # 1
    frequency:    0.3756114396
    eigenvector:
    - # atom 1
      - [  0.31267133774957,  0.00000000000000 ]
      - [  0.18052093100537, -0.00000000118163 ]
      - [  0.51066119553892, -0.00000000081222 ]
    - # atom 2
      - [ -0.39011589039552,  0.00000000000009 ]
      - [ -0.22523357670582,  0.00000000147428 ]
      - [ -0.63714472404222,  0.00000000101340 ]
  - # 2
    frequency:    0.3756454631
    eigenvector:
    - # atom 1
      - [ -0.31270026316142,  0.00000000000000 ]
      - [  0.54161269333609, -0.00000000119583 ]
      - [ -0.00000003534251, -0.00000000083049 ]
    - # atom 2
      - [  0.39015199607096,  0.00000000000016 ]
      - [ -0.67576301748309,  0.00000000149192 ]
      - [  0.00000004409737,  0.00000000103610 ]
  - # 3
    frequency:    0.6381326686
    eigenvector:
    - # atom 1
      - [ -0.44315483811047,  0.00000000000000 ]
      - [ -0.25585556508802,  0.00000000001036 ]
      - [  0.36178455096347,  0.00000000001303 ]
    - # atom 2
      - [  0.55105351946460, -0.00000000000000 ]
      - [  0.31815089781527, -0.00000000001261 ]
      - [ -0.44987074017094, -0.00000000001618 ]
  - # 4
    frequency:    4.5766549154
    eigenvector:
    - # atom 1
      - [ -0.39015276180940,  0.00000000000000 ]
      - [ -0.22525289963167, -0.00000012444804 ]
      - [ -0.63711531536515, -0.00000008799817 ]
    - # atom 2
      - [ -0.31270088115187, -0.00000000000006 ]
      - [ -0.18053641314936, -0.00000009974307 ]
      - [ -0.51063763183021, -0.00000007052901 ]
  - # 5
    frequency:    4.5766552452
    eigenvector:
    - # atom 1
      - [  0.39015114527532, -0.00000000000000 ]
      - [ -0.67576350868816, -0.00000012444818 ]
      - [ -0.00000134521080, -0.00000008799852 ]
    - # atom 2
      - [  0.31269958126401, -0.00000000000012 ]
      - [ -0.54161308702812, -0.00000009974334 ]
      - [ -0.00000107816341, -0.00000007052930 ]
  - # 6
    frequency:    7.3909218166
    eigenvector:
    - # atom 1
      - [  0.55102801718317,  0.00000000000000 ]
      - [  0.31813617403973, -0.00000000000006 ]
      - [ -0.44991238811602,  0.00000000000005 ]
    - # atom 2
      - [  0.44313447339673,  0.00000000000008 ]
      - [  0.25584380749357, -0.00000000000015 ]
      - [ -0.36181780873926, -0.00000000000008 ]

- q-position: [    0.0400920,    0.0400920,    1.0000000 ]
  distance:    0.0141461
  band:
  - # 1
    frequency:    0.4276597946
    eigenvector:
    - # atom 1
      - [  0.31242573212340,  0.00000000000000 ]
      - [  0.18037914700169, -0.00000000115242 ]
      - [  0.51024217856632, -0.00000000079457 ]
    - # atom 2
      - [ -0.39032756976211,  0.00000000000011 ]
      - [ -0.22535581050558,  0.00000000143975 ]
      - [ -0.63746811010511,  0.00000000099270 ]
  - # 2
    frequency:    0.4276890152
    eigenvector:
    - # atom 1
      - [ -0.31244734278644,  0.00000000000000 ]
      - [  0.54117460592572, -0.00000000116480 ]
      - [ -0.00000004698910, -0.00000000081048 ]
    - # atom 2
      - [  0.39035458758182,  0.00000000000018 ]
      - [ -0.67611389561276,  0.00000000145512 ]
      - [  0.00000005870658,  0.00000000101247 ]
  - # 3
    frequency:    0.7276776773
    eigenvector:
    - # atom 1
      - [ -0.44305148996344, -0.00000000000000 ]
      - [ -0.25579589700739,  0.00000000000909 ]
      - [  0.36171285545191,  0.00000000001135 ]
    - # atom 2
      - [  0.55112601208716, -0.00000000000000 ]
      - [  0.31819275145033, -0.00000000001099 ]
      - [ -0.44994570588190, -0.00000000001410 ]
  - # 4
    frequency:    4.5795156060
    eigenvector:
    - # atom 1
      - [  0.39035528876821,  0.00000000000000 ]
      - [  0.22536995912317,  0.00000014531201 ]
      - [  0.63744613460146,  0.00000010275124 ]
    - # atom 2
      - [  0.31244790834984,  0.00000000000006 ]
      - [  0.18039046571052,  0.00000011631060 ]
      - [  0.51022459758979,  0.00000008224403 ]
  - # 5
    frequency:    4.5795159330
    eigenvector:
    - # atom 1
      - [ -0.39035378434710,  0.00000000000000 ]
      - [  0.67611435935878,  0.00000014531214 ]
      - [  0.00000125293529,  0.00000010275162 ]
    - # atom 2
      - [ -0.31244669986283,  0.00000000000013 ]
      - [  0.54117497711643,  0.00000011631089 ]
      - [  0.00000100287311,  0.00000008224435 ]
  - # 6
    frequency:    7.3868720338
    eigenvector:
    - # atom 1
      - [ -0.55110694852326,  0.00000000000000 ]
      - [ -0.31818174507020,  0.00000000000007 ]
      - [  0.44997683817368, -0.00000000000006 ]
    - # atom 2
      - [ -0.44303630477758, -0.00000000000009 ]
      - [ -0.25578712981488,  0.00000000000017 ]
      - [  0.36173765406822,  0.00000000000009 ]

- q-position: [    0.0450910,    0.0450910,    1.0000000 ]
  distance:    0.0159143
  band:
  - # 1
    frequency:    0.4791430694
    eigenvector:
    - # atom 1
      - [  0.31215543923718,  0.00000000000000 ]
      - [  0.18022311223964, -0.00000000102585 ]
      - [  0.50978867127721, -0.00000000070742 ]
    - # atom 2
      - [ -0.39055385918186,  0.00000000000012 ]
      - [ -0.22548648254053,  0.00000000128347 ]
      - [ -0.63782258620746,  0.00000000088509 ]
  - # 2
    frequency:    0.4791685742
    eigenvector:
    - # atom 1
      - [ -0.31217211418219,  0.00000000000000 ]
      - [  0.54069787709102, -0.00000000103681 ]
      - [ -0.00000006035953, -0.00000000072148 ]
    - # atom 2
      - [  0.39057474360485,  0.00000000000021 ]
      - [ -0.67649519325291,  0.00000000129708 ]
      - [  0.00000007551990,  0.00000000090257 ]
  - # 3
    frequency:    0.8166946840
    eigenvector:
    - # atom 1
      - [ -0.44294299699592, -0.00000000000000 ]
      - [ -0.25573325856320,  0.00000000000810 ]
      - [  0.36163284271095,  0.00000000001004 ]
    - # atom 2
      - [  0.55120604751686, -0.00000000000000 ]
      - [  0.31823895992708, -0.00000000000972 ]
      - [ -0.45002171782604, -0.00000000001247 ]
  - # 4
    frequency:    4.5826566732
    eigenvector:
    - # atom 1
      - [  0.39057536786660,  0.00000000000000 ]
      - [  0.22549717783438,  0.00000016717277 ]
      - [  0.63780563420523,  0.00000011820914 ]
    - # atom 2
      - [  0.31217261739879,  0.00000000000007 ]
      - [  0.18023165312659,  0.00000013361515 ]
      - [  0.50977513271858,  0.00000009448020 ]
  - # 5
    frequency:    4.5826569977
    eigenvector:
    - # atom 1
      - [ -0.39057399761763,  0.00000000000000 ]
      - [  0.67649562394736,  0.00000016717287 ]
      - [  0.00000114263761,  0.00000011820953 ]
    - # atom 2
      - [ -0.31217151794282,  0.00000000000015 ]
      - [  0.54069822132880,  0.00000013361544 ]
      - [  0.00000091326794,  0.00000009448053 ]
  - # 6
    frequency:    7.3822133122
    eigenvector:
    - # atom 1
      - [ -0.55119133583067,  0.00000000000000 ]
      - [ -0.31823046610487,  0.00000000000007 ]
      - [  0.45004574288059, -0.00000000000006 ]
    - # atom 2
      - [ -0.44293131098250, -0.00000000000010 ]
      - [ -0.25572651161902,  0.00000000000019 ]
      - [  0.36165192667734,  0.00000000000010 ]

- q-position: [    0.0500900,    0.0500900,    1.0000000 ]
  distance:    0.0176826
  band:
  - # 1
    frequency:    0.5300056491
    eigenvector:
    - # atom 1
      - [  0.31186529006657,  0.00000000000000 ]
      - [  0.18005561534485, -0.00000000079182 ]
      - [  0.50930632147399, -0.00000000054382 ]
    - # atom 2
      - [ -0.39079269324310,  0.00000000000014 ]
      - [ -0.22562439968764,  0.00000000099219 ]
      - [ -0.63820199648271,  0.00000000068146 ]
  - # 2
    frequency:    0.5300281986
    eigenvector:
    - # atom 1
      - [ -0.31187849300000,  0.00000000000000 ]
      - [  0.54018928947831, -0.00000000080163 ]
      - [ -0.00000007507230, -0.00000000055640 ]
    - # atom 2
      - [  0.39080926206904,  0.00000000000023 ]
      - [ -0.67690136491073,  0.00000000100437 ]
      - [  0.00000009407268,  0.00000000069708 ]
  - # 3
    frequency:    0.9051277707
    eigenvector:
    - # atom 1
      - [ -0.44283091738390, -0.00000000000000 ]
      - [ -0.25566854936891,  0.00000000000731 ]
      - [  0.36154736943581,  0.00000000000898 ]
    - # atom 2
      - [  0.55129104509494, -0.00000000000000 ]
      - [  0.31828803330160, -0.00000000000870 ]
      - [ -0.45009863650284, -0.00000000001116 ]
  - # 4
    frequency:    4.5860438846
    eigenvector:
    - # atom 1
      - [  0.39080980441973,  0.00000000000000 ]
      - [  0.22563269490978,  0.00000019017050 ]
      - [  0.63818858569232,  0.00000013447101 ]
    - # atom 2
      - [  0.31187892992477,  0.00000000000008 ]
      - [  0.18006222630341,  0.00000015176232 ]
      - [  0.50929563180607,  0.00000010731218 ]
  - # 5
    frequency:    4.5860442064
    eigenvector:
    - # atom 1
      - [ -0.39080857619745,  0.00000000000000 ]
      - [  0.67690176089767,  0.00000019017056 ]
      - [  0.00000102591669,  0.00000013447141 ]
    - # atom 2
      - [ -0.31187794565310,  0.00000000000017 ]
      - [  0.54018960548824,  0.00000015176260 ]
      - [  0.00000081871428,  0.00000010731252 ]
  - # 6
    frequency:    7.3769211340
    eigenvector:
    - # atom 1
      - [ -0.55127940157838,  0.00000000000000 ]
      - [ -0.31828131088804,  0.00000000000008 ]
      - [  0.45011765089987, -0.00000000000007 ]
    - # atom 2
      - [ -0.44282169692910, -0.00000000000011 ]
      - [ -0.25566322591579,  0.00000000000021 ]
      - [  0.36156242687304,  0.00000000000011 ]

- q-position: [    0.0550890,    0.0550890,    1.0000000 ]
  distance:    0.0194508
  band:
  - # 1
    frequency:    0.5801963359
    eigenvector:
    - # atom 1
      - [  0.31155999511441,  0.00000000000000 ]
      - [  0.17987937658573, -0.00000000044102 ]
      - [  0.50880155870801, -0.00000000029732 ]
    - # atom 2
      - [ -0.39104130233999,  0.00000000000015 ]
      - [ -0.22576796375566,  0.00000000055349 ]
      - [ -0.63860025022357,  0.00000000037317 ]
  - # 2
    frequency:    0.5802164827
    eigenvector:
    - # atom 1
      - [ -0.31157067461512,  0.00000000000000 ]
      - [  0.53965610903257, -0.00000000044989 ]
      - [ -0.00000009159295, -0.00000000030867 ]
    - # atom 2
      - [  0.39105473369165,  0.00000000000025 ]
      - [ -0.67732650469404,  0.00000000056449 ]
      - [  0.00000011495995,  0.00000000038727 ]
  - # 3
    frequency:    0.9929241319
    eigenvector:
    - # atom 1
      - [ -0.44271727926609, -0.00000000000000 ]
      - [ -0.25560294037084,  0.00000000000666 ]
      - [  0.36145898475394,  0.00000000000812 ]
    - # atom 2
      - [  0.55137862638204, -0.00000000000000 ]
      - [  0.31833859838119, -0.00000000000786 ]
      - [ -0.45017562906428, -0.00000000001008 ]
  - # 4
    frequency:    4.5896407833
    eigenvector:
    - # atom 1
      - [  0.39105518751891,  0.00000000000000 ]
      - [  0.22577454397186,  0.00000021443288 ]
      - [  0.63858942114333,  0.00000015162712 ]
    - # atom 2
      - [  0.31157104005916,  0.00000000000009 ]
      - [  0.17988460894997,  0.00000017084828 ]
      - [  0.50879294538341,  0.00000012080800 ]
  - # 5
    frequency:    4.5896411025
    eigenvector:
    - # atom 1
      - [ -0.39105411170030,  0.00000000000000 ]
      - [  0.67732686379997,  0.00000021443288 ]
      - [  0.00000090071375,  0.00000015162751 ]
    - # atom 2
      - [ -0.31157017904789,  0.00000000000018 ]
      - [  0.53965639514769,  0.00000017084855 ]
      - [  0.00000071763802,  0.00000012080833 ]
  - # 6
    frequency:    7.3709691282
    eigenvector:
    - # atom 1
      - [ -0.55136922006969,  0.00000000000000 ]
      - [ -0.31833316761820,  0.00000000000009 ]
      - [  0.45019098991419, -0.00000000000008 ]
    - # atom 2
      - [ -0.44270985534000, -0.00000000000012 ]
      - [ -0.25559865414421,  0.00000000000023 ]
      - [  0.36147110830396,  0.00000000000012 ]

- q-position: [    0.0600880,    0.0600880,    1.0000000 ]
  distance:    0.0212191
  band:
  - # 1
    frequency:    0.6296687200
    eigenvector:
    - # atom 1
      - [  0.31124428245638,  0.00000000000000 ]
      - [  0.17969712603414,  0.00000000005754 ]
      - [  0.50828134929752,  0.00000000005391 ]
    - # atom 2
      - [ -0.39129649911400,  0.00000000000017 ]
      - [ -0.22591533493750, -0.00000000007237 ]
      - [ -0.63901120546575, -0.00000000006777 ]
  - # 2
    frequency:    0.6296868780
    eigenvector:
    - # atom 1
      - [ -0.31125307921421,  0.00000000000000 ]
      - [  0.53910599142550,  0.00000000004946 ]