nqpoint: 404    
npath: 4      
segment_nqpoint:
- 101
- 101
- 101
- 101
labels:
- [ '$\Gamma$', 'X' ]
- [ 'X', 'K' ]
- [ 'K', '$\Gamma$' ]
- [ '$\Gamma$', 'L' ]
reciprocal_lattice:
- [   0.25011959,  -0.14440661,  -0.10211090 ] # a*
- [   0.00000000,   0.28881323,  -0.10211090 ] # b*
- [   0.00000000,  -0.00000000,   0.30633269 ] # c*
natom: 2      
lattice:
- [     3.998087430433594,    -0.000000000000381,    -0.000000000000269 ] # a
- [     1.999043715266137,     3.462445281334601,     0.000000000000099 ] # b
- [     1.999043715266137,     1.154148427078513,     3.264424717202195 ] # c
points:
- symbol: Na # 1
  coordinates: [  0.000000000000000,  0.000000000000000,  0.000000000000000 ]
  mass: 22.989769
- symbol: Cl # 2
  coordinates: [  0.500000000000000,  0.500000000000000,  0.500000000000000 ]
  mass: 35.453000

phonon:
- q-position: [    0.0001000,    0.0001000,    1.0000000 ]
  distance:    0.0000000
  band:
  - # 1
    frequency:   -0.0075006238
    eigenvector:
    - # atom 1
      - [  0.01228371277290, -0.00000000000000 ]
      - [  0.00709200489875, -0.00000000010181 ]
      - [  0.62703398752775,  0.00000000792498 ]
    - # atom 2
      - [ -0.01525394071279,  0.00000000000000 ]
      - [ -0.00880686680691,  0.00000000012644 ]
      - [ -0.77866356582407, -0.00000000984140 ]
  - # 2
    frequency:   -0.0034712307
    eigenvector:
    - # atom 1
      - [ -0.31359705283593,  0.00000000000000 ]
      - [  0.54316604336578, -0.00000000753759 ]
      - [ -0.00000000018681, -0.00000000000294 ]
    - # atom 2
      - [  0.38943148084112,  0.00000000000000 ]
      - [ -0.67451512919791,  0.00000000936034 ]
      - [  0.00000000023300,  0.00000000000366 ]
  - # 3
    frequency:   -0.0032509586
    eigenvector:
    - # atom 1
      - [  0.54302709513876,  0.00000000000000 ]
      - [  0.31351683103761, -0.00000000435064 ]
      - [ -0.01418385719697, -0.00000000018097 ]
    - # atom 2
      - [ -0.67434265164005,  0.00000000000000 ]
      - [ -0.38933190087275,  0.00000000540271 ]
      - [  0.01761385642564,  0.00000000022473 ]
  - # 4
    frequency:    4.5666775432
    eigenvector:
    - # atom 1
      - [  0.38943242847177,  0.00000000000000 ]
      - [  0.22483666225763,  0.00000000031730 ]
      - [  0.63593874746526,  0.00000000022437 ]
    - # atom 2
      - [  0.31359781595393,  0.00000000000000 ]
      - [  0.18105396745626,  0.00000000025551 ]
      - [  0.51210217645410,  0.00000000018067 ]
  - # 5
    frequency:    4.5666778947
    eigenvector:
    - # atom 1
      - [ -0.38943051225399,  0.00000000000000 ]
      - [  0.67451568840912,  0.00000000031730 ]
      - [  0.00000159462682,  0.00000000022437 ]
    - # atom 2
      - [ -0.31359627286391,  0.00000000000000 ]
      - [  0.54316649368056,  0.00000000025551 ]
      - [  0.00000128410317,  0.00000000018068 ]
  - # 6
    frequency:    7.4037693991
    eigenvector:
    - # atom 1
      - [  0.55073935085344,  0.00000000000000 ]
      - [  0.31796951245651, -0.00000000000000 ]
      - [ -0.44967666845173,  0.00000000000000 ]
    - # atom 2
      - [  0.44349319574992,  0.00000000000000 ]
      - [  0.25605091594075, -0.00000000000000 ]
      - [ -0.36211070709009, -0.00000000000000 ]

- q-position: [    0.0050990,    0.0050990,    1.0000000 ]
  distance:    0.0017683
  band:
  - # 1
    frequency:    0.0548136169
    eigenvector:
    - # atom 1
      - [ -0.31196618529233,  0.00000000000000 ]
      - [ -0.18011376236798,  0.00000000028014 ]
      - [ -0.51337961970954,  0.00000000003513 ]
    - # atom 2
      - [  0.38744703337544, -0.00000000000001 ]
      - [  0.22369265064650, -0.00000000034792 ]
      - [  0.63759226178021, -0.00000000004363 ]
  - # 2
    frequency:    0.0550806554
    eigenvector:
    - # atom 1
      - [ -0.31357702507086,  0.00000000000000 ]
      - [  0.54313133818743, -0.00000000037933 ]
      - [ -0.00000000092370, -0.00000000016329 ]
    - # atom 2
      - [  0.38944762197385,  0.00000000000002 ]
      - [ -0.67454306650158,  0.00000000047110 ]
      - [  0.00000000114820,  0.00000000020278 ]
  - # 3
    frequency:    0.0931442425
    eigenvector:
    - # atom 1
      - [ -0.44461961161485,  0.00000000000000 ]
      - [ -0.25670125246555,  0.00000000007101 ]
      - [  0.36024411434160,  0.00000000009052 ]
    - # atom 2
      - [  0.55215513726974, -0.00000000000000 ]
      - [  0.31878691715194, -0.00000000008814 ]
      - [ -0.44737193907498, -0.00000000011242 ]
  - # 4
    frequency:    4.5668979746
    eigenvector:
    - # atom 1
      - [  0.38944856768360,  0.00000000000000 ]
      - [  0.22484596645553,  0.00000001635963 ]
      - [  0.63596509646773,  0.00000001156802 ]
    - # atom 2
      - [  0.31357778765946,  0.00000000000001 ]
      - [  0.18104239321053,  0.00000001317252 ]
      - [  0.51206945185187,  0.00000000931438 ]
  - # 5
    frequency:    4.5668983227
    eigenvector:
    - # atom 1
      - [ -0.38944663877741,  0.00000000000000 ]
      - [  0.67454363414745,  0.00000001635965 ]
      - [  0.00000160437103,  0.00000001156807 ]
    - # atom 2
      - [ -0.31357623341779,  0.00000000000002 ]
      - [  0.54313179524623,  0.00000001317256 ]
      - [  0.00000129181382,  0.00000000931443 ]
  - # 6
    frequency:    7.4035051206
    eigenvector:
    - # atom 1
      - [  0.55074592892139,  0.00000000000000 ]
      - [  0.31797331030581, -0.00000000000001 ]
      - [ -0.44968204347221,  0.00000000000001 ]
    - # atom 2
      - [  0.44348502497404,  0.00000000000001 ]
      - [  0.25604619854110, -0.00000000000002 ]
      - [ -0.36210403522296, -0.00000000000001 ]

- q-position: [    0.0100980,    0.0100980,    1.0000000 ]
  distance:    0.0035365
  band:
  - # 1
    frequency:    0.1090471182
    eigenvector:
    - # atom 1
      - [  0.31311903935478,  0.00000000000000 ]
      - [  0.18077936573193, -0.00000000048176 ]
      - [  0.51230029132595, -0.00000000025849 ]
    - # atom 2
      - [ -0.38899797409333,  0.00000000000003 ]
      - [ -0.22458809011761,  0.00000000059850 ]
      - [ -0.63644674997603,  0.00000000032113 ]
  - # 2
    frequency:    0.1091783196
    eigenvector:
    - # atom 1
      - [  0.31351874407665,  0.00000000000000 ]
      - [ -0.54303038978240,  0.00000000053171 ]
      - [  0.00000000287529,  0.00000000032302 ]
    - # atom 2
      - [ -0.38949454416391, -0.00000000000005 ]
      - [  0.67462433468703, -0.00000000066054 ]
      - [ -0.00000000357307, -0.00000000040127 ]
  - # 3
    frequency:    0.1846062503
    eigenvector:
    - # atom 1
      - [ -0.44374358851357,  0.00000000000000 ]
      - [ -0.25619548029205,  0.00000000003581 ]
      - [  0.36162323714288,  0.00000000004585 ]
    - # atom 2
      - [  0.55111583915173, -0.00000000000000 ]
      - [  0.31818687810356, -0.00000000004439 ]
      - [ -0.44912423707491, -0.00000000005694 ]
  - # 4
    frequency:    4.5675398004
    eigenvector:
    - # atom 1
      - [ -0.38949548604872,  0.00000000000000 ]
      - [ -0.22487306199743, -0.00000003280361 ]
      - [ -0.63604172216149, -0.00000002319569 ]
    - # atom 2
      - [ -0.31351950426534, -0.00000000000002 ]
      - [ -0.18100874964137, -0.00000002640487 ]
      - [ -0.51197426986510, -0.00000001867107 ]
  - # 5
    frequency:    4.5675401451
    eigenvector:
    - # atom 1
      - [  0.38949356260402,  0.00000000000000 ]
      - [ -0.67462490138806, -0.00000003280366 ]
      - [ -0.00000159927198, -0.00000002319580 ]
    - # atom 2
      - [  0.31351795398338, -0.00000000000003 ]
      - [ -0.54303084594067, -0.00000002640496 ]
      - [ -0.00000128731368, -0.00000001867116 ]
  - # 6
    frequency:    7.4027308755
    eigenvector:
    - # atom 1
      - [  0.55076503429043,  0.00000000000000 ]
      - [  0.31798434079577, -0.00000000000002 ]
      - [ -0.44969764679497,  0.00000000000001 ]
    - # atom 2
      - [  0.44346129597655,  0.00000000000002 ]
      - [  0.25603249859801, -0.00000000000005 ]
      - [ -0.36208466014355, -0.00000000000002 ]

- q-position: [    0.0150970,    0.0150970,    1.0000000 ]
  distance:    0.0053048
  band:
  - # 1
    frequency:    0.1629970779
    eigenvector:
    - # atom 1
      - [  0.31324909436164,  0.00000000000000 ]
      - [  0.18085445757696, -0.00000000068913 ]
      - [  0.51195990150452, -0.00000000043242 ]
    - # atom 2
      - [ -0.38935536380492,  0.00000000000004 ]
      - [ -0.22479443482406,  0.00000000085655 ]
      - [ -0.63634392592065,  0.00000000053748 ]
  - # 2
    frequency:    0.1630828832
    eigenvector:
    - # atom 1
      - [ -0.31342303410705,  0.00000000000000 ]
      - [  0.54286461070014, -0.00000000072249 ]
      - [ -0.00000000609380, -0.00000000047550 ]
    - # atom 2
      - [  0.38957156936480,  0.00000000000007 ]
      - [ -0.67475774058781,  0.00000000089799 ]
      - [  0.00000000757534,  0.00000000059098 ]
  - # 3
    frequency:    0.2758781377
    eigenvector:
    - # atom 1
      - [ -0.44354531971731,  0.00000000000000 ]
      - [ -0.25608100974907,  0.00000000002396 ]
      - [  0.36185220932962,  0.00000000003064 ]
    - # atom 2
      - [  0.55094913460322, -0.00000000000000 ]
      - [  0.31809063118752, -0.00000000002964 ]
      - [ -0.44947352072922, -0.00000000003806 ]
  - # 4
    frequency:    4.5685957278
    eigenvector:
    - # atom 1
      - [ -0.38957249651232,  0.00000000000000 ]
      - [ -0.22491755425181, -0.00000004975673 ]
      - [ -0.63616750405380, -0.00000003518337 ]
    - # atom 2
      - [ -0.31342378279874, -0.00000000000002 ]
      - [ -0.18095351007354, -0.00000004003094 ]
      - [ -0.51181796578929, -0.00000002830616 ]
  - # 5
    frequency:    4.5685960694
    eigenvector:
    - # atom 1
      - [  0.38957059844920,  0.00000000000000 ]
      - [ -0.67475830114343, -0.00000004975681 ]
      - [ -0.00000157788732, -0.00000003518354 ]
    - # atom 2
      - [  0.31342225297482, -0.00000000000005 ]
      - [ -0.54286506168481, -0.00000004003107 ]
      - [ -0.00000126946156, -0.00000002830629 ]
  - # 6
    frequency:    7.4014416139
    eigenvector:
    - # atom 1
      - [  0.55079630964150,  0.00000000000000 ]
      - [  0.31800239762814, -0.00000000000002 ]
      - [ -0.44972318668067,  0.00000000000002 ]
    - # atom 2
      - [  0.44342244847918,  0.00000000000003 ]
      - [  0.25601006998494, -0.00000000000007 ]
      - [ -0.36205294088142, -0.00000000000003 ]

- q-position: [    0.0200960,    0.0200960,    1.0000000 ]
  distance:    0.0070730
  band:
  - # 1
    frequency:    0.2166860622
    eigenvector:
    - # atom 1
      - [  0.31319573090562,  0.00000000000000 ]
      - [  0.18082365492300, -0.00000000087967 ]
      - [  0.51168066825310, -0.00000000058089 ]
    - # atom 2
      - [ -0.38955876891306,  0.00000000000005 ]
      - [ -0.22491187922335,  0.00000000109414 ]
      - [ -0.63643754276913,  0.00000000072252 ]
  - # 2
    frequency:    0.2167491626
    eigenvector:
    - # atom 1
      - [ -0.31329123917564,  0.00000000000000 ]
      - [  0.54263632843094, -0.00000000090468 ]
      - [ -0.00000001086797, -0.00000000061317 ]
    - # atom 2
      - [  0.38967757196237,  0.00000000000009 ]
      - [ -0.67494133406711,  0.00000000112520 ]
      - [  0.00000001351879,  0.00000000076261 ]
  - # 3
    frequency:    0.3669279992
    eigenvector:
    - # atom 1
      - [ -0.44343665284966,  0.00000000000000 ]
      - [ -0.25601827090374,  0.00000000001801 ]
      - [  0.36189930493638,  0.00000000002298 ]
    - # atom 2
      - [  0.55092315610358, -0.00000000000000 ]
      - [  0.31807563249375, -0.00000000002222 ]
      - [ -0.44962099710989, -0.00000000002854 ]
  - # 4
    frequency:    4.5700537847
    eigenvector:
    - # atom 1
      - [  0.38967847267180,  0.00000000000000 ]
      - [  0.22497879418804,  0.00000006731746 ]
      - [  0.63634060367383,  0.00000004760070 ]
    - # atom 2
      - [  0.31329196667789,  0.00000000000003 ]
      - [  0.18087745111834,  0.00000005412163 ]
      - [  0.51160273407197,  0.00000003826978 ]
  - # 5
    frequency:    4.5700541232
    eigenvector:
    - # atom 1
      - [ -0.38967662103754,  0.00000000000000 ]
      - [  0.67494188308118,  0.00000006731756 ]
      - [  0.00000153929909,  0.00000004760092 ]
    - # atom 2
      - [ -0.31329047465636,  0.00000000000007 ]
      - [  0.54263676982423,  0.00000005412180 ]
      - [  0.00000123755853,  0.00000003826996 ]
  - # 6
    frequency:    7.3996290309
    eigenvector:
    - # atom 1
      - [  0.55083916660013,  0.00000000000000 ]
      - [  0.31802714110474, -0.00000000000003 ]
      - [ -0.44975818273410,  0.00000000000003 ]
    - # atom 2
      - [  0.44336920692130,  0.00000000000005 ]
      - [  0.25597933095717, -0.00000000000009 ]
      - [ -0.36200946893755, -0.00000000000005 ]

- q-position: [    0.0250950,    0.0250950,    1.0000000 ]
  distance:    0.0088413
  band:
  - # 1
    frequency:    0.2700608421
    eigenvector:
    - # atom 1
      - [  0.31306559897844,  0.00000000000000 ]
      - [  0.18074853268312, -0.00000000103317 ]
      - [  0.51138023079327, -0.00000000069771 ]
    - # atom 2
      - [ -0.38973678087471,  0.00000000000006 ]
      - [ -0.22501466627493,  0.00000000128619 ]
      - [ -0.63661903821485,  0.00000000086859 ]
  - # 2
    frequency:    0.2701103409
    eigenvector:
    - # atom 1
      - [ -0.31312521202292,  0.00000000000000 ]
      - [  0.54234875150367, -0.00000000105315 ]
      - [ -0.00000001755954, -0.00000000072348 ]
    - # atom 2
      - [  0.38981100392268,  0.00000000000011 ]
      - [ -0.67517243320414,  0.00000000131101 ]
      - [  0.00000002186095,  0.00000000090060 ]
  - # 3
    frequency:    0.4576958635
    eigenvector:
    - # atom 1
      - [ -0.44334464396137,  0.00000000000000 ]
      - [ -0.25596514954733,  0.00000000001444 ]
      - [  0.36188635248278,  0.00000000001835 ]
    - # atom 2
      - [  0.55094526205656, -0.00000000000000 ]
      - [  0.31808839537171, -0.00000000001775 ]
      - [ -0.44971627469101, -0.00000000002279 ]
  - # 4
    frequency:    4.5718974925
    eigenvector:
    - # atom 1
      - [ -0.38981187127898,  0.00000000000000 ]
      - [ -0.22505587910587, -0.00000008552915 ]
      - [ -0.63655849264887, -0.00000006047833 ]
    - # atom 2
      - [ -0.31312591253803, -0.00000000000004 ]
      - [ -0.18078163521912, -0.00000006870342 ]
      - [ -0.51133159983632, -0.00000004858067 ]
  - # 5
    frequency:    4.5718978280
    eigenvector:
    - # atom 1
      - [  0.38981007698616,  0.00000000000000 ]
      - [ -0.67517296836871, -0.00000008552927 ]
      - [ -0.00000149178431, -0.00000006047859 ]
    - # atom 2
      - [  0.31312446743953, -0.00000000000008 ]
      - [ -0.54234918138710, -0.00000006870363 ]
      - [ -0.00000119831186, -0.00000004858089 ]
  - # 6
    frequency:    7.3972816656
    eigenvector:
    - # atom 1
      - [  0.55089279165066,  0.00000000000000 ]
      - [  0.31805810154212, -0.00000000000004 ]
      - [ -0.44980197073256,  0.00000000000004 ]
    - # atom 2
      - [  0.44330257371188,  0.00000000000006 ]
      - [  0.25594086025577, -0.00000000000011 ]
      - [ -0.36195506277413, -0.00000000000006 ]

- q-position: [    0.0300940,    0.0300940,    1.0000000 ]
  distance:    0.0106096
  band:
  - # 1
    frequency:    0.3230575412
    eigenvector:
    - # atom 1
      - [  0.31288692246378,  0.00000000000000 ]
      - [  0.18064538523193, -0.00000000113829 ]
      - [  0.51104129275216, -0.00000000077759 ]
    - # atom 2
      - [ -0.38991959908730,  0.00000000000008 ]
      - [ -0.22512023076102,  0.00000000141852 ]
      - [ -0.63685901390924,  0.00000000096904 ]
  - # 2
    frequency:    0.3230979982
    eigenvector:
    - # atom 1
      - [ -0.31292728950738,  0.00000000000000 ]
      - [  0.54200592816820, -0.00000000115491 ]
      - [ -0.00000002567904, -0.00000000079900 ]
    - # atom 2
      - [  0.38996991758406,  0.00000000000014 ]
      - [ -0.67544766539797,  0.00000000143916 ]
      - [  0.00000003200220,  0.00000000099563 ]
  - # 3
    frequency:    0.5481183681
    eigenvector:
    - # atom 1
      - [ -0.44325227978655,  0.00000000000000 ]
      - [ -0.25591182306601,  0.00000000001206 ]
      - [  0.36184428087368,  0.00000000001525 ]
    - # atom 2
      - [  0.55099171610858, -0.00000000000000 ]
      - [  0.31811521563105, -0.00000000001476 ]
      - [ -0.44979563141698, -0.00000000001895 ]
  - # 4
    frequency:    4.5741061061
    eigenvector:
    - # atom 1
      - [  0.38997073848672,  0.00000000000000 ]
      - [  0.22514769607904,  0.00000010451319 ]
      - [  0.63681799107395,  0.00000007390208 ]
    - # atom 2
      - [  0.31292795232225,  0.00000000000005 ]
      - [  0.18066742078661,  0.00000008386557 ]
      - [  0.51100837961882,  0.00000005930192 ]
  - # 5
    frequency:    4.5741064387
    eigenvector:
    - # atom 1
      - [ -0.38996902555118,  0.00000000000000 ]
      - [  0.67544818041113,  0.00000010451332 ]
      - [  0.00000142464594,  0.00000007390240 ]
    - # atom 2
      - [ -0.31292657370590,  0.00000000000010 ]
      - [  0.54200634143456,  0.00000008386581 ]
      - [  0.00000114319189,  0.00000005930218 ]
  - # 6
    frequency:    7.3943850370
    eigenvector:
    - # atom 1
      - [  0.55095615427321,  0.00000000000000 ]
      - [  0.31809468396931, -0.00000000000005 ]
      - [ -0.44985370926969,  0.00000000000004 ]
    - # atom 2
      - [  0.44322381990467,  0.00000000000007 ]
      - [  0.25589539172398, -0.00000000000013 ]
      - [ -0.36189076020089, -0.00000000000007 ]

- q-position: [    0.0350930,    0.0350930,    1.0000000 ]
  distance:    0.0123778
  band:
  - # 1
    frequency:    0.3756114396
    eigenvector:
    - # atom 1
      - [  0.31267133773322,  0.00000000000000 ]
      - [  0.18052093103369, -0.00000000118160 ]
      - [  0.51066119553892, -0.00000000081220 ]
    - # atom 2
      - [ -0.39011589037512,  0.00000000000009 ]
      - [ -0.22523357674115,  0.00000000147425 ]
      - [ -0.63714472404221,  0.00000000101338 ]
  - # 2
    frequency:    0.3756454631
    eigenvector:
    - # atom 1
      - [ -0.31270026317777,  0.00000000000000 ]
      - [  0.54161269332665, -0.00000000119580 ]
      - [ -0.00000003536921, -0.00000000083048 ]
    - # atom 2
      - [  0.39015199609136,  0.00000000000016 ]
      - [ -0.67576301747131,  0.00000000149189 ]
      - [  0.00000004413068,  0.00000000103608 ]
  - # 3
    frequency:    0.6381326686
    eigenvector:
    - # atom 1
      - [ -0.44315483811047,  0.00000000000000 ]
      - [ -0.25585556508802,  0.00000000001036 ]
      - [  0.36178455096347,  0.00000000001303 ]
    - # atom 2
      - [  0.55105351946459, -0.00000000000000 ]
      - [  0.31815089781527, -0.00000000001261 ]
      - [ -0.44987074017095, -0.00000000001618 ]
  - # 4
    frequency:    4.5766549154
    eigenvector:
    - # atom 1
      - [  0.39015276071176,  0.00000000000000 ]
      - [  0.22525290153284,  0.00000012436780 ]
      - [  0.63711531536515,  0.00000008794143 ]
    - # atom 2
      - [  0.31270088027213,  0.00000000000006 ]
      - [  0.18053641467312,  0.00000009967876 ]
      - [  0.51063763183021,  0.00000007048354 ]
  - # 5
    frequency:    4.5766552452
    eigenvector:
    - # atom 1
      - [ -0.39015114637297,  0.00000000000000 ]
      - [  0.67576350805444,  0.00000012436794 ]
      - [  0.00000134341837,  0.00000008794178 ]
    - # atom 2
      - [ -0.31269958214375,  0.00000000000012 ]
      - [  0.54161308652021,  0.00000009967903 ]
      - [  0.00000107672680,  0.00000007048383 ]
  - # 6
    frequency:    7.3909218166
    eigenvector:
    - # atom 1
      - [  0.55102801718317,  0.00000000000000 ]
      - [  0.31813617403973, -0.00000000000006 ]
      - [ -0.44991238811602,  0.00000000000005 ]
    - # atom 2
      - [  0.44313447339673,  0.00000000000008 ]
      - [  0.25584380749357, -0.00000000000015 ]
      - [ -0.36181780873926, -0.00000000000008 ]

- q-position: [    0.0400920,    0.0400920,    1.0000000 ]
  distance:    0.0141461
  band:
  - # 1
    frequency:    0.4276597946
    eigenvector:
    - # atom 1
      - [  0.31242573215291,  0.00000000000000 ]
      - [  0.18037914695059, -0.00000000114749 ]
      - [  0.51024217856632, -0.00000000079108 ]
    - # atom 2
      - [ -0.39032756979897,  0.00000000000011 ]
      - [ -0.22535581044174,  0.00000000143359 ]
      - [ -0.63746811010511,  0.00000000098834 ]
  - # 2
    frequency:    0.4276890152
    eigenvector:
    - # atom 1
      - [ -0.31244734275694,  0.00000000000000 ]
      - [  0.54117460594275, -0.00000000115987 ]
      - [ -0.00000004694091, -0.00000000080700 ]
    - # atom 2
      - [  0.39035458754497,  0.00000000000018 ]
      - [ -0.67611389563403,  0.00000000144897 ]
      - [  0.00000005864638,  0.00000000100811 ]
  - # 3
    frequency:    0.7276776773
    eigenvector:
    - # atom 1
      - [ -0.44305148996344,  0.00000000000000 ]
      - [ -0.25579589700739,  0.00000000000908 ]
      - [  0.36171285545191,  0.00000000001135 ]
    - # atom 2
      - [  0.55112601208715, -0.00000000000000 ]
      - [  0.31819275145034, -0.00000000001099 ]
      - [ -0.44994570588190, -0.00000000001410 ]
  - # 4
    frequency:    4.5795156060
    eigenvector:
    - # atom 1
      - [  0.39035528683388,  0.00000000000000 ]
      - [  0.22536996247354,  0.00000014515782 ]
      - [  0.63744613460147,  0.00000010264221 ]
    - # atom 2
      - [  0.31244790680156,  0.00000000000006 ]
      - [  0.18039046839223,  0.00000011618718 ]
      - [  0.51022459758979,  0.00000008215676 ]
  - # 5
    frequency:    4.5795159330
    eigenvector:
    - # atom 1
      - [ -0.39035378628144,  0.00000000000000 ]
      - [  0.67611435824200,  0.00000014515794 ]
      - [  0.00000124977653,  0.00000010264258 ]
    - # atom 2
      - [ -0.31244670141112,  0.00000000000013 ]
      - [  0.54117497622253,  0.00000011618747 ]
      - [  0.00000100034477,  0.00000008215707 ]
  - # 6
    frequency:    7.3868720338
    eigenvector:
    - # atom 1
      - [ -0.55110694852325,  0.00000000000000 ]
      - [ -0.31818174507020,  0.00000000000007 ]
      - [  0.44997683817368, -0.00000000000006 ]
    - # atom 2
      - [ -0.44303630477758, -0.00000000000009 ]
      - [ -0.25578712981488,  0.00000000000017 ]
      - [  0.36173765406822,  0.00000000000009 ]

- q-position: [    0.0450910,    0.0450910,    1.0000000 ]
  distance:    0.0159143
  band:
  - # 1
    frequency:    0.4791430694
    eigenvector:
    - # atom 1
      - [  0.31215543927075,  0.00000000000000 ]
      - [  0.18022311218150, -0.00000000102694 ]
      - [  0.50978867127721, -0.00000000070818 ]
    - # atom 2
      - [ -0.39055385922386,  0.00000000000012 ]
      - [ -0.22548648246778,  0.00000000128483 ]
      - [ -0.63782258620746,  0.00000000088605 ]
  - # 2
    frequency:    0.4791685742
    eigenvector:
    - # atom 1
      - [ -0.31217211414863,  0.00000000000000 ]
      - [  0.54069787711039, -0.00000000103789 ]
      - [ -0.00000006030470, -0.00000000072225 ]
    - # atom 2
      - [  0.39057474356286,  0.00000000000021 ]
      - [ -0.67649519327715,  0.00000000129843 ]
      - [  0.00000007545131,  0.00000000090352 ]
  - # 3
    frequency:    0.8166946840
    eigenvector:
    - # atom 1
      - [ -0.44294299699591,  0.00000000000000 ]
      - [ -0.25573325856321,  0.00000000000810 ]
      - [  0.36163284271095,  0.00000000001004 ]
    - # atom 2
      - [  0.55120604751685, -0.00000000000000 ]
      - [  0.31823895992709, -0.00000000000972 ]
      - [ -0.45002171782603, -0.00000000001247 ]
  - # 4
    frequency:    4.5826566732
    eigenvector:
    - # atom 1
      - [  0.39057536881953,  0.00000000000000 ]
      - [  0.22549717618385,  0.00000016706925 ]
      - [  0.63780563420523,  0.00000011813595 ]
    - # atom 2
      - [  0.31217261816043,  0.00000000000007 ]
      - [  0.18023165180739,  0.00000013353242 ]
      - [  0.50977513271858,  0.00000009442169 ]
  - # 5
    frequency:    4.5826569977
    eigenvector:
    - # atom 1
      - [ -0.39057399666469,  0.00000000000000 ]
      - [  0.67649562449753,  0.00000016706935 ]
      - [  0.00000114419374,  0.00000011813634 ]
    - # atom 2
      - [ -0.31217151718117,  0.00000000000015 ]
      - [  0.54069822176853,  0.00000013353271 ]
      - [  0.00000091451170,  0.00000009442202 ]
  - # 6
    frequency:    7.3822133122
    eigenvector:
    - # atom 1
      - [ -0.55119133583067,  0.00000000000000 ]
      - [ -0.31823046610487,  0.00000000000007 ]
      - [  0.45004574288059, -0.00000000000006 ]
    - # atom 2
      - [ -0.44293131098250, -0.00000000000010 ]
      - [ -0.25572651161902,  0.00000000000019 ]
      - [  0.36165192667733,  0.00000000000010 ]

- q-position: [    0.0500900,    0.0500900,    1.0000000 ]
  distance:    0.0176826
  band:
  - # 1
    frequency:    0.5300056491
    eigenvector:
    - # atom 1
      - [  0.31186529009207,  0.00000000000000 ]
      - [  0.18005561530069, -0.00000000079596 ]
      - [  0.50930632147399, -0.00000000054674 ]
    - # atom 2
      - [ -0.39079269327505,  0.00000000000013 ]
      - [ -0.22562439963230,  0.00000000099737 ]
      - [ -0.63820199648270,  0.00000000068512 ]
  - # 2
    frequency:    0.5300281986
    eigenvector:
    - # atom 1
      - [ -0.31187849297450,  0.00000000000000 ]
      - [  0.54018928949303, -0.00000000080577 ]
      - [ -0.00000007503065, -0.00000000055932 ]
    - # atom 2
      - [  0.39080926203710,  0.00000000000023 ]
      - [ -0.67690136492917,  0.00000000100955 ]
      - [  0.00000009402050,  0.00000000070075 ]
  - # 3
    frequency:    0.9051277707
    eigenvector:
    - # atom 1
      - [ -0.44283091738389,  0.00000000000000 ]
      - [ -0.25566854936891,  0.00000000000731 ]
      - [  0.36154736943581,  0.00000000000898 ]
    - # atom 2
      - [  0.55129104509493, -0.00000000000000 ]
      - [  0.31828803330160, -0.00000000000870 ]
      - [ -0.45009863650284, -0.00000000001116 ]
  - # 4
    frequency:    4.5860438846
    eigenvector:
    - # atom 1
      - [  0.39080980616591,  0.00000000000000 ]
      - [  0.22563269188531,  0.00000019008363 ]
      - [  0.63818858569232,  0.00000013440959 ]
    - # atom 2
      - [  0.31187893131827,  0.00000000000008 ]
      - [  0.18006222388979,  0.00000015169299 ]
      - [  0.50929563180607,  0.00000010726316 ]
  - # 5
    frequency:    4.5860442064
    eigenvector:
    - # atom 1
      - [ -0.39080857445128,  0.00000000000000 ]
      - [  0.67690176190583,  0.00000019008369 ]
      - [  0.00000102876818,  0.00000013440999 ]
    - # atom 2
      - [ -0.31187794425959,  0.00000000000017 ]
      - [  0.54018960629277,  0.00000015169328 ]
      - [  0.00000082098987,  0.00000010726350 ]
  - # 6
    frequency:    7.3769211340
    eigenvector:
    - # atom 1
      - [ -0.55127940157838,  0.00000000000000 ]
      - [ -0.31828131088804,  0.00000000000008 ]
      - [  0.45011765089987, -0.00000000000007 ]
    - # atom 2
      - [ -0.44282169692910, -0.00000000000011 ]
      - [ -0.25566322591579,  0.00000000000021 ]
      - [  0.36156242687304,  0.00000000000011 ]

- q-position: [    0.0550890,    0.0550890,    1.0000000 ]
  distance:    0.0194508
  band:
  - # 1
    frequency:    0.5801963359
    eigenvector:
    - # atom 1
      - [  0.31155999505845,  0.00000000000000 ]
      - [  0.17987937668267, -0.00000000043904 ]
      - [  0.50880155870800, -0.00000000029592 ]
    - # atom 2
      - [ -0.39104130226975,  0.00000000000015 ]
      - [ -0.22576796387734,  0.00000000055100 ]
      - [ -0.63860025022356,  0.00000000037142 ]
  - # 2
    frequency:    0.5802164827
    eigenvector:
    - # atom 1
      - [ -0.31157067467109,  0.00000000000000 ]
      - [  0.53965610900025, -0.00000000044790 ]
      - [ -0.00000009168435, -0.00000000030727 ]
    - # atom 2
      - [  0.39105473376190,  0.00000000000025 ]
      - [ -0.67732650465348,  0.00000000056200 ]
      - [  0.00000011507467,  0.00000000038551 ]
  - # 3
    frequency:    0.9929241319
    eigenvector:
    - # atom 1
      - [ -0.44271727926608,  0.00000000000000 ]
      - [ -0.25560294037084,  0.00000000000666 ]
      - [  0.36145898475394,  0.00000000000812 ]
    - # atom 2
      - [  0.55137862638204, -0.00000000000000 ]
      - [  0.31833859838119, -0.00000000000786 ]
      - [ -0.45017562906429, -0.00000000001008 ]
  - # 4
    frequency:    4.5896407833
    eigenvector:
    - # atom 1
      - [  0.39105518579981,  0.00000000000000 ]
      - [  0.22577454694944,  0.00000021426459 ]
      - [  0.63858942114333,  0.00000015150812 ]
    - # atom 2
      - [  0.31157103868948,  0.00000000000009 ]
      - [  0.17988461132234,  0.00000017071420 ]
      - [  0.50879294538341,  0.00000012071319 ]
  - # 5
    frequency:    4.5896411025
    eigenvector:
    - # atom 1
      - [ -0.39105411341941,  0.00000000000000 ]
      - [  0.67732686280745,  0.00000021426459 ]
      - [  0.00000089790646,  0.00000015150851 ]
    - # atom 2
      - [ -0.31157018041758,  0.00000000000018 ]
      - [  0.53965639435691,  0.00000017071446 ]
      - [  0.00000071540133,  0.00000012071352 ]
  - # 6
    frequency:    7.3709691282
    eigenvector:
    - # atom 1
      - [ -0.55136922006969,  0.00000000000000 ]
      - [ -0.31833316761820,  0.00000000000009 ]
      - [  0.45019098991419, -0.00000000000008 ]
    - # atom 2
      - [ -0.44270985534000, -0.00000000000012 ]
      - [ -0.25559865414421,  0.00000000000023 ]
      - [  0.36147110830396,  0.00000000000012 ]

- q-position: [    0.0600880,    0.0600880,    1.0000000 ]
  distance:    0.0212191
  band:
  - # 1
    frequency:    0.6296687200
    eigenvector:
    - # atom 1
      - [  0.31124428259792,  0.00000000000000 ]
      - [  0.17969712578899,  0.00000000005605 ]
      - [  0.50828134929751,  0.00000000005286 ]
    - # atom 2
      - [ -0.39129649929194,  0.00000000000017 ]
      - [ -0.22591533462930, -0.00000000007051 ]
      - [ -0.63901120546574, -0.00000000006645 ]
  - # 2
    frequency:    0.6296868780
    eigenvector:
    - # atom 1
      - [ -0.31125307907268,  0.00000000000000 ]
      - [  0.53910599150721,  0.00000000004797 ]