 1046

    1
0.0000000000e+00 0.0000000000e+00 0.0000000000e+00
0.0000000000e+00 0.0000000000e+00 0.0000000000e+00
     1      1      1
 1  1  1     0.0000000000e+00
 1  1  2     0.0000000000e+00
 1  1  3     0.0000000000e+00
 1  2  1     0.0000000000e+00
 1  2  2     0.0000000000e+00
 1  2  3     0.0000000000e+00
 1  3  1     0.0000000000e+00
 1  3  2     0.0000000000e+00
 1  3  3     0.0000000000e+00
 2  1  1     0.0000000000e+00
 2  1  2     0.0000000000e+00
 2  1  3     0.0000000000e+00
 2  2  1     0.0000000000e+00
 2  2  2     0.0000000000e+00
 2  2  3     0.0000000000e+00
 2  3  1     0.0000000000e+00
 2  3  2     0.0000000000e+00
 2  3  3     0.0000000000e+00
 3  1  1     0.0000000000e+00
 3  1  2     0.0000000000e+00
 3  1  3     0.0000000000e+00
 3  2  1     0.0000000000e+00
 3  2  2     0.0000000000e+00
 3  2  3     0.0000000000e+00
 3  3  1     0.0000000000e+00
 3  3  2     0.0000000000e+00
 3  3  3     0.0000000000e+00

    2
0.0000000000e+00 0.0000000000e+00 0.0000000000e+00
0.0000000000e+00 0.0000000000e+00 0.0000000000e+00
     1      1      2
 1  1  1     6.5993145716e-02
 1  1  2     6.2854855482e-02
 1  1  3     4.4445094542e-02
 1  2  1     6.0461488725e-02
 1  2  2     2.0615904295e-02
 1  2  3     3.9870483340e-02
 1  3  1     4.2752728678e-02
 1  3  2     3.9870483340e-02
 1  3  3    -7.5767848430e-03
 2  1  1     6.0461488725e-02
 2  1  2     2.0615904295e-02
 2  1  3     3.9870483340e-02
 2  2  1     2.4761337120e-02
 2  2  2    -1.0457730387e-02
 2  2  3    -1.5933740377e-03
 2  3  1     3.9870483340e-02
 2  3  2    -3.2857399015e-03
 2  3  3    -4.3744587687e-03
 3  1  1     4.2752728678e-02
 3  1  2     3.9870483340e-02
 3  1  3    -7.5767848430e-03
 3  2  1     3.9870483340e-02
 3  2  2    -3.2857399015e-03
 3  2  3    -4.3744587687e-03
 3  3  1    -3.4313520187e-03
 3  3  2    -1.9810920117e-03
 3  3  3    -7.2022016302e-03

    3
0.0000000000e+00 0.0000000000e+00 0.0000000000e+00
3.9980874304e+00 -3.8090000000e-13 -2.6930000000e-13
     1      1      1
 1  1  1    -9.5952907054e-02
 1  1  2     0.0000000000e+00
 1  1  3     0.0000000000e+00
 1  2  1     0.0000000000e+00
 1  2  2     3.6667514508e-02
 1  2  3    -2.2267517783e-02
 1  3  1     0.0000000000e+00
 1  3  2    -2.2267517783e-02
 1  3  3     5.2413027332e-02
 2  1  1     0.0000000000e+00
 2  1  2     3.6667514508e-02
 2  1  3    -2.2267517783e-02
 2  2  1    -2.0162409094e-02
 2  2  2     0.0000000000e+00
 2  2  3     0.0000000000e+00
 2  3  1     2.7905791143e-02
 2  3  2     0.0000000000e+00
 2  3  3     0.0000000000e+00
 3  1  1     0.0000000000e+00
 3  1  2    -2.2267517783e-02
 3  1  3     5.2413027332e-02
 3  2  1     2.7905791143e-02
 3  2  2     0.0000000000e+00
 3  2  3     0.0000000000e+00
 3  3  1    -3.9894783244e-02
 3  3  2     0.0000000000e+00
 3  3  3     0.0000000000e+00

    4
0.0000000000e+00 0.0000000000e+00 0.0000000000e+00
-7.9961748609e+00 7.6180000000e-13 5.3860000000e-13
     1      1      2
 1  1  1    -6.5993145708e-02
 1  1  2     6.2854855479e-02
 1  1  3     4.4445094540e-02
 1  2  1     6.0461488722e-02
 1  2  2    -2.0615904296e-02
 1  2  3    -3.9870483341e-02
 1  3  1     4.2752728676e-02
 1  3  2    -3.9870483341e-02
 1  3  3     7.5767848428e-03
 2  1  1     6.0461488722e-02
 2  1  2    -2.0615904296e-02
 2  1  3    -3.9870483341e-02
 2  2  1    -2.4761337120e-02
 2  2  2    -1.0457730387e-02
 2  2  3    -1.5933740376e-03
 2  3  1    -3.9870483341e-02
 2  3  2    -3.2857399015e-03
 2  3  3    -4.3744587685e-03
 3  1  1     4.2752728676e-02
 3  1  2    -3.9870483341e-02
 3  1  3     7.5767848428e-03
 3  2  1    -3.9870483341e-02
 3  2  2    -3.2857399015e-03
 3  2  3    -4.3744587685e-03
 3  3  1     3.4313520186e-03
 3  3  2    -1.9810920115e-03
 3  3  3    -7.2022016302e-03

    5
0.0000000000e+00 0.0000000000e+00 0.0000000000e+00
-3.9980874304e+00 3.8090000000e-13 2.6930000000e-13
     1      1      1
 1  1  1     9.5952907054e-02
 1  1  2     0.0000000000e+00
 1  1  3     0.0000000000e+00
 1  2  1     0.0000000000e+00
 1  2  2    -3.6667514508e-02
 1  2  3     2.2267517783e-02
 1  3  1     0.0000000000e+00
 1  3  2     2.2267517783e-02
 1  3  3    -5.2413027332e-02
 2  1  1     0.0000000000e+00
 2  1  2    -3.6667514508e-02
 2  1  3     2.2267517783e-02
 2  2  1     2.0162409094e-02
 2  2  2     0.0000000000e+00
 2  2  3     0.0000000000e+00
 2  3  1    -2.7905791143e-02
 2  3  2     0.0000000000e+00
 2  3  3     0.0000000000e+00
 3  1  1     0.0000000000e+00
 3  1  2     2.2267517783e-02
 3  1  3    -5.2413027332e-02
 3  2  1    -2.7905791143e-02
 3  2  2     0.0000000000e+00
 3  2  3     0.0000000000e+00
 3  3  1     3.9894783244e-02
 3  3  2     0.0000000000e+00
 3  3  3     0.0000000000e+00

    6
0.0000000000e+00 0.0000000000e+00 0.0000000000e+00
-3.9980874304e+00 3.8090000000e-13 2.6930000000e-13
     1      1      2
 1  1  1     0.0000000000e+00
 1  1  2    -6.1712608661e-02
 1  1  3    -4.3637404069e-02
 1  2  1    -5.8864508477e-02
 1  2  2     0.0000000000e+00
 1  2  3     0.0000000000e+00
 1  3  1    -4.1623493115e-02
 1  3  2     0.0000000000e+00
 1  3  3     0.0000000000e+00
 2  1  1    -5.8864508477e-02
 2  1  2     0.0000000000e+00
 2  1  3     0.0000000000e+00
 2  2  1     0.0000000000e+00
 2  2  2    -2.0290990349e+00
 2  2  3    -1.3515427010e+00
 2  3  1     0.0000000000e+00
 2  3  2    -1.3495287901e+00
 2  3  3    -9.8369321310e-01
 3  1  1    -4.1623493115e-02
 3  1  2     0.0000000000e+00
 3  1  3     0.0000000000e+00
 3  2  1     0.0000000000e+00
 3  2  2    -1.3495287901e+00
 3  2  3    -9.8369321310e-01
 3  3  1     0.0000000000e+00
 3  3  2    -9.8654131329e-01
 3  3  3    -7.8083703878e-01

    7
0.0000000000e+00 0.0000000000e+00 0.0000000000e+00
1.9990437153e+00 3.4624452813e+00 9.8600000000e-14
     1      1      1
 1  1  1     7.9456190878e-03
 1  1  2    -4.9747782155e-02
 1  1  3    -1.9284236079e-02
 1  2  1    -5.3162462372e-04
 1  2  2    -3.7588315364e-02
 1  2  3    -1.1133758891e-02
 1  3  1     2.4414439817e-03
 1  3  2     2.6496222802e-02
 1  3  3     2.6206513667e-02
 2  1  1    -5.3162462372e-04
 2  1  2    -3.7588315364e-02
 2  1  3    -1.1133758891e-02
 2  2  1    -6.6003277164e-02
 2  2  2    -5.0811031398e-02
 2  2  3     1.9284236078e-02
 2  3  1    -2.3677086122e-02
 2  3  2    -2.4414439820e-03
 2  3  3     4.5391013159e-02
 3  1  1     2.4414439817e-03
 3  1  2     2.6496222802e-02
 3  1  3     2.6206513667e-02
 3  2  1    -2.3677086122e-02
 3  2  2    -2.4414439820e-03
 3  2  3     4.5391013159e-02
 3  3  1    -1.9947391623e-02
 3  3  2    -3.4549895768e-02
 3  3  3     0.0000000000e+00

    8
0.0000000000e+00 0.0000000000e+00 0.0000000000e+00
-3.9980874305e+00 -6.9248905627e+00 -1.9720000000e-13
     1      1      2
 1  1  1     2.1212191645e-13
 1  1  2     1.9966961525e-02
 1  1  3    -2.4612608327e-02
 1  2  1     2.4753695039e-02
 1  2  2    -1.1568780209e-12
 1  2  3     1.0639857940e-12
 1  3  1    -2.6304974190e-02
 1  3  2     9.9104101446e-13
 1  3  3     7.0932728360e-14
 2  1  1     2.4753695039e-02
 2  1  2    -1.1400506881e-12
 2  1  3     1.0559561386e-12
 2  2  1    -1.1156181757e-12
 2  2  2    -1.2476121172e-01
 2  2  3     6.7464328831e-02
 2  3  1     1.0264670701e-12
 2  3  2     6.5771962967e-02
 2  3  3     8.7489175377e-03
 3  1  1    -2.6304974190e-02
 3  1  2     9.8837499943e-13
 3  1  3     7.1312573589e-14
 3  2  1     1.0366300616e-12
 3  2  2     6.5771962967e-02
 3  2  3     8.7489175377e-03
 3  3  1     2.2189107125e-14
 3  3  2     3.9621840236e-03
 3  3  3    -7.2022016300e-03

    9
0.0000000000e+00 0.0000000000e+00 0.0000000000e+00
-1.9990437152e+00 3.4624452813e+00 3.6790000000e-13
     1      1      1
 1  1  1    -7.9456190895e-03
 1  1  2    -4.9747782154e-02
 1  1  3    -1.9284236079e-02
 1  2  1    -5.3162462006e-04
 1  2  2     3.7588315362e-02
 1  2  3     1.1133758893e-02
 1  3  1     2.4414439815e-03
 1  3  2    -2.6496222803e-02
 1  3  3    -2.6206513665e-02
 2  1  1    -5.3162462006e-04
 2  1  2     3.7588315362e-02
 2  1  3     1.1133758893e-02
 2  2  1     6.6003277163e-02
 2  2  2    -5.0811031398e-02
 2  2  3     1.9284236078e-02
 2  3  1     2.3677086123e-02
 2  3  2    -2.4414439820e-03
 2  3  3     4.5391013159e-02
 3  1  1     2.4414439815e-03
 3  1  2    -2.6496222803e-02
 3  1  3    -2.6206513665e-02
 3  2  1     2.3677086123e-02
 3  2  2    -2.4414439820e-03
 3  2  3     4.5391013159e-02
 3  3  1     1.9947391622e-02
 3  3  2    -3.4549895768e-02
 3  3  3     0.0000000000e+00

   10
0.0000000000e+00 0.0000000000e+00 0.0000000000e+00
-1.9990437153e+00 -3.4624452813e+00 -9.8600000000e-14
     1      1      1
 1  1  1    -7.9456190878e-03
 1  1  2     4.9747782155e-02
 1  1  3     1.9284236079e-02
 1  2  1     5.3162462372e-04
 1  2  2     3.7588315364e-02
 1  2  3     1.1133758891e-02
 1  3  1    -2.4414439817e-03
 1  3  2    -2.6496222802e-02
 1  3  3    -2.6206513667e-02
 2  1  1     5.3162462372e-04
 2  1  2     3.7588315364e-02
 2  1  3     1.1133758891e-02
 2  2  1     6.6003277164e-02
 2  2  2     5.0811031398e-02
 2  2  3    -1.9284236078e-02
 2  3  1     2.3677086122e-02
 2  3  2     2.4414439820e-03
 2  3  3    -4.5391013159e-02
 3  1  1    -2.4414439817e-03
 3  1  2    -2.6496222802e-02
 3  1  3    -2.6206513667e-02
 3  2  1     2.3677086122e-02
 3  2  2     2.4414439820e-03
 3  2  3    -4.5391013159e-02
 3  3  1     1.9947391623e-02
 3  3  2     3.4549895768e-02
 3  3  3     0.0000000000e+00

   11
0.0000000000e+00 0.0000000000e+00 0.0000000000e+00
-1.9990437153e+00 -3.4624452813e+00 -9.8600000000e-14
     1      1      2
 1  1  1    -1.3567887348e+00
 1  1  2     7.2447783282e-01
 1  1  3    -1.0245663768e+00
 1  2  1     7.2305378273e-01
 1  2  2    -4.5144073594e-01
 1  2  3     5.6633960648e-01
 1  3  1    -1.0225524658e+00
 1  3  2     5.6633960648e-01
 1  3  3    -8.5190331207e-01
 2  1  1     7.2305378273e-01
 2  1  2    -4.5144073594e-01
 2  1  3     5.6633960648e-01
 2  2  1    -4.5390726305e-01
 2  2  2     3.2092798901e-01
 2  2  3    -3.7061372835e-01
 2  3  1     5.6633960648e-01
 2  3  2    -3.6859981740e-01
 2  3  3     4.9184660658e-01
 3  1  1    -1.0225524658e+00
 3  1  2     5.6633960648e-01
 3  1  3    -8.5190331207e-01
 3  2  1     5.6633960648e-01
 3  2  2    -3.6859981740e-01
 3  2  3     4.9184660658e-01
 3  3  1    -8.5436983918e-01
 3  3  2     4.9327065668e-01
 3  3  3    -7.8083703878e-01

   12
0.0000000000e+00 0.0000000000e+00 0.0000000000e+00
1.9990437152e+00 -3.4624452813e+00 -3.6790000000e-13
     1      1      1
 1  1  1     7.9456190895e-03
 1  1  2     4.9747782154e-02
 1  1  3     1.9284236079e-02
 1  2  1     5.3162462006e-04
 1  2  2    -3.7588315362e-02
 1  2  3    -1.1133758893e-02
 1  3  1    -2.4414439815e-03
 1  3  2     2.6496222803e-02
 1  3  3     2.6206513665e-02
 2  1  1     5.3162462006e-04
 2  1  2    -3.7588315362e-02
 2  1  3    -1.1133758893e-02
 2  2  1    -6.6003277163e-02
 2  2  2     5.0811031398e-02
 2  2  3    -1.9284236078e-02
 2  3  1    -2.3677086123e-02
 2  3  2     2.4414439820e-03
 2  3  3    -4.5391013159e-02
 3  1  1    -2.4414439815e-03
 3  1  2     2.6496222803e-02
 3  1  3     2.6206513665e-02
 3  2  1    -2.3677086123e-02
 3  2  2     2.4414439820e-03
 3  2  3    -4.5391013159e-02
 3  3  1    -1.9947391622e-02
 3  3  2     3.4549895768e-02
 3  3  3     0.0000000000e+00

   13
0.0000000000e+00 0.0000000000e+00 0.0000000000e+00
-5.9971311457e+00 -3.4624452813e+00 1.7070000000e-13
     1      1      2
 1  1  1     1.3567887349e+00
 1  1  2     7.2447783284e-01
 1  1  3    -1.0245663768e+00
 1  2  1     7.2305378275e-01
 1  2  2     4.5144073594e-01
 1  2  3    -5.6633960647e-01
 1  3  1    -1.0225524658e+00
 1  3  2    -5.6633960647e-01
 1  3  3     8.5190331205e-01
 2  1  1     7.2305378275e-01
 2  1  2     4.5144073594e-01
 2  1  3    -5.6633960647e-01
 2  2  1     4.5390726305e-01
 2  2  2     3.2092798899e-01
 2  2  3    -3.7061372832e-01
 2  3  1    -5.6633960647e-01
 2  3  2    -3.6859981737e-01
 2  3  3     4.9184660655e-01
 3  1  1    -1.0225524658e+00
 3  1  2    -5.6633960647e-01
 3  1  3     8.5190331205e-01
 3  2  1    -5.6633960647e-01
 3  2  2    -3.6859981737e-01
 3  2  3     4.9184660655e-01
 3  3  1     8.5436983916e-01
 3  3  2     4.9327065664e-01
 3  3  3    -7.8083703873e-01

   14
0.0000000000e+00 0.0000000000e+00 0.0000000000e+00
1.9990437153e+00 1.1541484271e+00 3.2644247172e+00
     1      1      1
 1  1  1     7.9456190883e-03
 1  1  2    -3.4763946186e-02
 1  1  3    -4.0474580121e-02
 1  2  1     2.1246072529e-03
 1  2  2     2.3946155956e-02
 1  2  3     4.7405018297e-03
 1  3  1    -1.3150351620e-03
 1  3  2    -3.2889479863e-02
 1  3  3    -3.5327957652e-02
 2  1  1     2.1246072529e-03
 2  1  2     2.3946155956e-02
 2  1  3     4.7405018297e-03
 2  2  1    -3.9946692821e-02
 2  2  2     1.6288117653e-02
 2  2  3    -4.5948440137e-02
 2  3  1    -3.2889479863e-02
 2  3  2     3.6662464947e-02
 2  3  3    -2.0396605860e-02
 3  1  1    -1.3150351620e-03
 3  1  2    -3.2889479863e-02
 3  1  3    -3.5327957652e-02
 3  2  1    -3.2889479863e-02
 3  2  2     3.6662464947e-02
 3  2  3    -2.0396605860e-02
 3  3  1    -4.6003975964e-02
 3  3  2    -2.6560407906e-02
 3  3  3    -4.0958692487e-02

   15
0.0000000000e+00 0.0000000000e+00 0.0000000000e+00
-3.9980874305e+00 -2.3082968542e+00 -6.5288494344e+00
     1      1      2
 1  1  1    -5.8417981220e-14
 1  1  2    -1.6549335826e-02
 1  1  3     2.7029234634e-02
 1  2  1    -1.6549335826e-02
 1  2  2     4.8716232325e-13
 1  2  3     4.0595086895e-13
 1  3  1     3.2106332225e-02
 1  3  2     5.3575430635e-13
 1  3  3    -1.5839814052e-12
 2  1  1    -1.6549335826e-02
 2  1  2     4.9093381349e-13
 2  1  3     4.1477571797e-13
 2  2  1     4.6392945715e-13
 2  2  2     1.6549335825e-02
 2  2  3     2.7029234634e-02
 2  3  1     5.4926839328e-13
 2  3  2     3.2106332226e-02
 2  3  3     1.6075630326e-12
 3  1  1     3.2106332225e-02
 3  1  2     5.3981548072e-13
 3  1  3    -1.5889932161e-12
 3  2  1     5.3970555319e-13
 3  2  2     3.2106332226e-02
 3  2  3     1.6237502519e-12
 3  3  1    -1.5930679635e-12
 3  3  2     1.6308918145e-12
 3  3  3    -1.6100702589e-01

   16
0.0000000000e+00 0.0000000000e+00 0.0000000000e+00
-1.9990437152e+00 1.1541484271e+00 3.2644247172e+00
     1      1      1
 1  1  1    -7.9456190901e-03
 1  1  2    -3.4763946187e-02
 1  1  3    -4.0474580120e-02
 1  2  1     2.1246072539e-03
 1  2  2    -2.3946155955e-02
 1  2  3    -4.7405018315e-03
 1  3  1    -1.3150351585e-03
 1  3  2     3.2889479864e-02
 1  3  3     3.5327957651e-02
 2  1  1     2.1246072539e-03
 2  1  2    -2.3946155955e-02
 2  1  3    -4.7405018315e-03
 2  2  1     3.9946692821e-02
 2  2  2     1.6288117653e-02
 2  2  3    -4.5948440137e-02
 2  3  1     3.2889479864e-02
 2  3  2     3.6662464947e-02
 2  3  3    -2.0396605860e-02
 3  1  1    -1.3150351585e-03
 3  1  2     3.2889479864e-02
 3  1  3     3.5327957651e-02
 3  2  1     3.2889479864e-02
 3  2  2     3.6662464947e-02
 3  2  3    -2.0396605860e-02
 3  3  1     4.6003975963e-02
 3  3  2    -2.6560407906e-02
 3  3  3    -4.0958692487e-02

   17
0.0000000000e+00 0.0000000000e+00 0.0000000000e+00
9.8680508209e-11 4.6165937084e+00 3.2644247172e+00
     1      1      1
 1  1  1     0.0000000000e+00
 1  1  2     7.1103756005e-02
 1  1  3     5.0277948039e-02
 1  2  1     3.9555901460e-02
 1  2  2     0.0000000000e+00
 1  2  3     0.0000000000e+00
 1  3  1     2.7970246158e-02
 1  3  2     0.0000000000e+00
 1  3  3     0.0000000000e+00
 2  1  1     3.9555901460e-02
 2  1  2     0.0000000000e+00
 2  1  3     0.0000000000e+00
 2  2  1     0.0000000000e+00
 2  2  2    -4.0993408097e-01
 2  2  3    -3.4580766081e-01
 2  3  1     0.0000000000e+00
 2  3  2    -3.6811536269e-01
 2  3  3    -2.4051891849e-01
 3  1  1     2.7970246158e-02
 3  1  2     0.0000000000e+00
 3  1  3     0.0000000000e+00
 3  2  1     0.0000000000e+00
 3  2  2    -3.6811536269e-01
 3  2  3    -2.4051891849e-01
 3  3  1     0.0000000000e+00
 3  3  2    -2.0897106394e-01
 3  3  3    -9.1824364070e-02

   18
0.0000000000e+00 0.0000000000e+00 0.0000000000e+00
-2.7755575616e-16 -2.3082968543e+00 3.2644247172e+00
     1      1      1
 1  1  1     0.0000000000e+00
 1  1  2     3.4425755374e-02
 1  1  3    -4.8685370144e-02
 1  2  1    -3.9351351508e-02
 1  2  2    -1.6812864155e-13
 1  2  3    -1.1943697218e-13
 1  3  1     5.5651214998e-02
 1  3  2     2.3831404803e-13
 1  3  3     1.6812741947e-13
 2  1  1    -3.9351351508e-02
 2  1  2    -1.6813087030e-13
 2  1  3    -1.1943874737e-13
 2  2  1    -3.3677632600e-13
 2  2  2     2.5259016949e-03
 2  2  3    -3.7737650115e-02
 2  3  1     1.1906137737e-13
 2  3  2    -2.0303785215e-02
 2  3  3     4.0793211721e-02
 3  1  1     5.5651214998e-02
 3  1  2     2.3832127006e-13
 3  1  3     1.6813021068e-13
 3  2  1     1.1907632429e-13
 3  2  2    -2.0303785215e-02
 3  2  3     4.0793211721e-02
 3  3  1     3.3677985356e-13
 3  3  2     5.3120815814e-02
 3  3  3    -4.0958692486e-02

   19
0.0000000000e+00 0.0000000000e+00 0.0000000000e+00
3.9980874304e+00 -2.3082968543e+00 3.2644247172e+00
     1      1      1
 1  1  1    -2.3373737347e-01
 1  1  2     1.7450423696e-01
 1  1  3    -2.4678625859e-01
 1  2  1     1.9027816424e-01
 1  2  2    -8.7019538997e-02
 1  2  3     1.7151009968e-01
 1  3  1    -2.6909396047e-01
 1  3  2     1.7151009968e-01
 1  3  3    -2.0829549350e-01
 2  1  1     1.9027816424e-01
 2  1  2    -8.7019538997e-02
 2  1  3     1.7151009968e-01
 2  2  1    -5.9698295525e-02
 2  2  2    -5.0890744691e-03
 2  2  3    -4.8743454183e-02
 2  3  1     1.7151009968e-01
 2  3  2    -7.1051156064e-02
 2  3  3     1.2025945925e-01
 3  1  1    -2.6909396047e-01
 3  1  2     1.7151009968e-01
 3  1  3    -2.0829549350e-01
 3  2  1     1.7151009968e-01
 3  2  2    -7.1051156064e-02
 3  2  3     1.2025945925e-01
 3  3  1    -1.8097425003e-01
 3  3  2     1.0448553198e-01
 3  3  3    -9.1824364070e-02

   20
0.0000000000e+00 0.0000000000e+00 0.0000000000e+00
-3.9980874304e+00 -2.3082968543e+00 3.2644247172e+00
     1      1      1
 1  1  1     2.3373737349e-01
 1  1  2     1.7450423697e-01
 1  1  3    -2.4678625860e-01
 1  2  1     1.9027816424e-01
 1  2  2     8.7019538991e-02
 1  2  3    -1.7151009967e-01
 1  3  1    -2.6909396048e-01
 1  3  2    -1.7151009967e-01
 1  3  3     2.0829549349e-01
 2  1  1     1.9027816424e-01
 2  1  2     8.7019538991e-02
 2  1  3    -1.7151009967e-01
 2  2  1     5.9698295520e-02
 2  2  2    -5.0890744718e-03
 2  2  3    -4.8743454178e-02
 2  3  1    -1.7151009967e-01
 2  3  2    -7.1051156058e-02
 2  3  3     1.2025945924e-01
 3  1  1    -2.6909396048e-01
 3  1  2    -1.7151009967e-01
 3  1  3     2.0829549349e-01
 3  2  1    -1.7151009967e-01
 3  2  2    -7.1051156058e-02
 3  2  3     1.2025945924e-01
 3  3  1     1.8097425002e-01
 3  3  2     1.0448553197e-01
 3  3  3    -9.1824364060e-02

   21
0.0000000000e+00 0.0000000000e+00 0.0000000000e+00
-3.9980874304e+00 -2.3082968543e+00 3.2644247172e+00
     1      1      2
 1  1  1     5.8417981220e-14
 1  1  2     1.6549335826e-02
 1  1  3    -2.7029234634e-02
 1  2  1     1.6549335826e-02
 1  2  2    -4.8716232325e-13
 1  2  3    -4.0595086895e-13
 1  3  1    -3.2106332225e-02
 1  3  2    -5.3575430635e-13
 1  3  3     1.5839814052e-12
 2  1  1     1.6549335826e-02
 2  1  2    -4.9093381349e-13
 2  1  3    -4.1477571797e-13
 2  2  1    -4.6392945715e-13
 2  2  2    -1.6549335825e-02
 2  2  3    -2.7029234634e-02
 2  3  1    -5.4926839328e-13
 2  3  2    -3.2106332226e-02
 2  3  3    -1.6075630326e-12
 3  1  1    -3.2106332225e-02
 3  1  2    -5.3981548072e-13
 3  1  3     1.5889932161e-12
 3  2  1    -5.3970555319e-13
 3  2  2    -3.2106332226e-02
 3  2  3    -1.6237502519e-12
 3  3  1     1.5930679635e-12
 3  3  2    -1.6308918145e-12
 3  3  3     1.6100702589e-01

   22
0.0000000000e+00 0.0000000000e+00 0.0000000000e+00
-1.9990437153e+00 -1.1541484271e+00 -3.2644247172e+00
     1      1      1
 1  1  1    -7.9456190883e-03
 1  1  2     3.4763946186e-02
 1  1  3     4.0474580121e-02
 1  2  1    -2.1246072529e-03
 1  2  2    -2.3946155956e-02
 1  2  3    -4.7405018297e-03
 1  3  1     1.3150351620e-03
 1  3  2     3.2889479863e-02
 1  3  3     3.5327957652e-02
 2  1  1    -2.1246072529e-03
 2  1  2    -2.3946155956e-02
 2  1  3    -4.7405018297e-03
 2  2  1     3.9946692821e-02
 2  2  2    -1.6288117653e-02
 2  2  3     4.5948440137e-02
 2  3  1     3.2889479863e-02
 2  3  2    -3.6662464947e-02
 2  3  3     2.0396605860e-02
 3  1  1     1.3150351620e-03
 3  1  2     3.2889479863e-02
 3  1  3     3.5327957652e-02
 3  2  1     3.2889479863e-02
 3  2  2    -3.6662464947e-02
 3  2  3     2.0396605860e-02
 3  3  1     4.6003975964e-02
 3  3  2     2.6560407906e-02
 3  3  3     4.0958692487e-02

   23
0.0000000000e+00 0.0000000000e+00 0.0000000000e+00
-1.9990437153e+00 -1.1541484271e+00 -3.2644247172e+00
     1      1      2
 1  1  1    -1.3567887349e+00
 1  1  2    -7.2447783284e-01
 1  1  3     1.0245663768e+00
 1  2  1    -7.2305378275e-01
 1  2  2    -4.5144073594e-01
 1  2  3     5.6633960647e-01
 1  3  1     1.0225524658e+00
 1  3  2     5.6633960647e-01
 1  3  3    -8.5190331205e-01
 2  1  1    -7.2305378275e-01
 2  1  2    -4.5144073594e-01
 2  1  3     5.6633960647e-01
 2  2  1    -4.5390726305e-01
 2  2  2    -3.2092798899e-01
 2  2  3     3.7061372832e-01
 2  3  1     5.6633960647e-01
 2  3  2     3.6859981737e-01
 2  3  3    -4.9184660655e-01
 3  1  1     1.0225524658e+00
 3  1  2     5.6633960647e-01
 3  1  3    -8.5190331205e-01
 3  2  1     5.6633960647e-01
 3  2  2     3.6859981737e-01
 3  2  3    -4.9184660655e-01
 3  3  1    -8.5436983916e-01
 3  3  2    -4.9327065664e-01
 3  3  3     7.8083703873e-01

   24
0.0000000000e+00 0.0000000000e+00 0.0000000000e+00
1.9990437152e+00 -1.1541484271e+00 -3.2644247172e+00
     1      1      1
 1  1  1     7.9456190901e-03
 1  1  2     3.4763946187e-02
 1  1  3     4.0474580120e-02
 1  2  1    -2.1246072539e-03
 1  2  2     2.3946155955e-02
 1  2  3     4.7405018315e-03
 1  3  1     1.3150351585e-03
 1  3  2    -3.2889479864e-02
 1  3  3    -3.5327957651e-02
 2  1  1    -2.1246072539e-03
 2  1  2     2.3946155955e-02
 2  1  3     4.7405018315e-03
 2  2  1    -3.9946692821e-02
 2  2  2    -1.6288117653e-02
 2  2  3     4.5948440137e-02
 2  3  1    -3.2889479864e-02
 2  3  2    -3.6662464947e-02
 2  3  3     2.0396605860e-02
 3  1  1     1.3150351585e-03
 3  1  2    -3.2889479864e-02
 3  1  3    -3.5327957651e-02
 3  2  1    -3.2889479864e-02
 3  2  2    -3.6662464947e-02
 3  2  3     2.0396605860e-02
 3  3  1    -4.6003975963e-02
 3  3  2     2.6560407906e-02
 3  3  3     4.0958692487e-02

   25
0.0000000000e+00 0.0000000000e+00 0.0000000000e+00
-5.9971311457e+00 -1.1541484271e+00 -3.2644247172e+00
     1      1      2
 1  1  1     1.3567887348e+00
 1  1  2    -7.2447783282e-01
 1  1  3     1.0245663768e+00
 1  2  1    -7.2305378273e-01
 1  2  2     4.5144073594e-01
 1  2  3    -5.6633960648e-01
 1  3  1     1.0225524658e+00
 1  3  2    -5.6633960648e-01
 1  3  3     8.5190331207e-01
 2  1  1    -7.2305378273e-01
 2  1  2     4.5144073594e-01
 2  1  3    -5.6633960648e-01
 2  2  1     4.5390726305e-01
 2  2  2    -3.2092798901e-01
 2  2  3     3.7061372835e-01
 2  3  1    -5.6633960648e-01
 2  3  2     3.6859981740e-01
 2  3  3    -4.9184660658e-01
 3  1  1     1.0225524658e+00
 3  1  2    -5.6633960648e-01
 3  1  3     8.5190331207e-01
 3  2  1    -5.6633960648e-01
 3  2  2     3.6859981740e-01
 3  2  3    -4.9184660658e-01
 3  3  1     8.5436983918e-01
 3  3  2    -4.9327065668e-01
 3  3  3     7.8083703878e-01

   26
0.0000000000e+00 0.0000000000e+00 0.0000000000e+00
-2.7755575616e-16 2.3082968543e+00 -3.2644247172e+00
     1      1      1
 1  1  1     0.0000000000e+00
 1  1  2    -3.4425755374e-02
 1  1  3     4.8685370144e-02
 1  2  1     3.9351351508e-02
 1  2  2     1.6812864155e-13
 1  2  3     1.1943697218e-13
 1  3  1    -5.5651214998e-02
 1  3  2    -2.3831404803e-13
 1  3  3    -1.6812741947e-13
 2  1  1     3.9351351508e-02
 2  1  2     1.6813087030e-13
 2  1  3     1.1943874737e-13
 2  2  1     3.3677632600e-13
 2  2  2    -2.5259016949e-03
 2  2  3     3.7737650115e-02
 2  3  1    -1.1906137737e-13
 2  3  2     2.0303785215e-02
 2  3  3    -4.0793211721e-02
 3  1  1    -5.5651214998e-02
 3  1  2    -2.3832127006e-13
 3  1  3    -1.6813021068e-13
 3  2  1    -1.1907632429e-13
 3  2  2     2.0303785215e-02
 3  2  3    -4.0793211721e-02
 3  3  1    -3.3677985356e-13
 3  3  2    -5.3120815814e-02
 3  3  3     4.0958692486e-02

   27
0.0000000000e+00 0.0000000000e+00 0.0000000000e+00
3.9980874304e+00 2.3082968543e+00 -3.2644247172e+00
     1      1      1
 1  1  1    -2.3373737349e-01
 1  1  2    -1.7450423697e-01
 1  1  3     2.4678625860e-01
 1  2  1    -1.9027816424e-01
 1  2  2    -8.7019538991e-02
 1  2  3     1.7151009967e-01
 1  3  1     2.6909396048e-01
 1  3  2     1.7151009967e-01
 1  3  3    -2.0829549349e-01
 2  1  1    -1.9027816424e-01
 2  1  2    -8.7019538991e-02
 2  1  3     1.7151009967e-01
 2  2  1    -5.9698295520e-02
 2  2  2     5.0890744718e-03
 2  2  3     4.8743454178e-02
 2  3  1     1.7151009967e-01
 2  3  2     7.1051156058e-02
 2  3  3    -1.2025945924e-01
 3  1  1     2.6909396048e-01
 3  1  2     1.7151009967e-01
 3  1  3    -2.0829549349e-01
 3  2  1     1.7151009967e-01
 3  2  2     7.1051156058e-02
 3  2  3    -1.2025945924e-01
 3  3  1    -1.8097425002e-01
 3  3  2    -1.0448553197e-01
 3  3  3     9.1824364060e-02

   28
0.0000000000e+00 0.0000000000e+00 0.0000000000e+00
-3.9980874304e+00 2.3082968543e+00 -3.2644247172e+00
     1      1      1
 1  1  1     2.3373737347e-01
 1  1  2    -1.7450423696e-01
 1  1  3     2.4678625859e-01
 1  2  1    -1.9027816424e-01
 1  2  2     8.7019538997e-02
 1  2  3    -1.7151009968e-01
 1  3  1     2.6909396047e-01
 1  3  2    -1.7151009968e-01
 1  3  3     2.0829549350e-01
 2  1  1    -1.9027816424e-01
 2  1  2     8.7019538997e-02
 2  1  3    -1.7151009968e-01
 2  2  1     5.9698295525e-02
 2  2  2     5.0890744691e-03
 2  2  3     4.8743454183e-02
 2  3  1    -1.7151009968e-01
 2  3  2     7.1051156064e-02
 2  3  3    -1.2025945925e-01
 3  1  1     2.6909396047e-01
 3  1  2    -1.7151009968e-01
 3  1  3     2.0829549350e-01
 3  2  1    -1.7151009968e-01
 3  2  2     7.1051156064e-02
 3  2  3    -1.2025945925e-01
 3  3  1     1.8097425003e-01
 3  3  2    -1.0448553198e-01
 3  3  3     9.1824364070e-02

   29
0.0000000000e+00 0.0000000000e+00 0.0000000000e+00
-3.9980874304e+00 2.3082968543e+00 -3.2644247172e+00
     1      1      2
 1  1  1    -2.1212191645e-13
 1  1  2    -1.9966961525e-02
 1  1  3     2.4612608327e-02
 1  2  1    -2.4753695039e-02
 1  2  2     1.1568780209e-12
 1  2  3    -1.0639857940e-12
 1  3  1     2.6304974190e-02
 1  3  2    -9.9104101446e-13
 1  3  3    -7.0932728360e-14
 2  1  1    -2.4753695039e-02
 2  1  2     1.1400506881e-12
 2  1  3    -1.0559561386e-12
 2  2  1     1.1156181757e-12
 2  2  2     1.2476121172e-01
 2  2  3    -6.7464328831e-02
 2  3  1    -1.0264670701e-12
 2  3  2    -6.5771962967e-02
 2  3  3    -8.7489175377e-03
 3  1  1     2.6304974190e-02
 3  1  2    -9.8837499943e-13
 3  1  3    -7.1312573589e-14
 3  2  1    -1.0366300616e-12
 3  2  2    -6.5771962967e-02
 3  2  3    -8.7489175377e-03
 3  3  1    -2.2189107125e-14
 3  3  2    -3.9621840236e-03
 3  3  3     7.2022016300e-03

   30
0.0000000000e+00 0.0000000000e+00 0.0000000000e+00
-3.9980874305e+00 -4.6165937084e+00 -3.2644247172e+00
     1      1      2
 1  1  1     0.0000000000e+00
 1  1  2     6.1712608661e-02
 1  1  3     4.3637404069e-02
 1  2  1     5.8864508477e-02
 1  2  2     0.0000000000e+00
 1  2  3     0.0000000000e+00
 1  3  1     4.1623493115e-02
 1  3  2     0.0000000000e+00
 1  3  3     0.0000000000e+00
 2  1  1     5.8864508477e-02
 2  1  2     0.0000000000e+00
 2  1  3     0.0000000000e+00
 2  2  1     0.0000000000e+00
 2  2  2     2.0290990349e+00
 2  2  3     1.3515427010e+00
 2  3  1     0.0000000000e+00
 2  3  2     1.3495287901e+00
 2  3  3     9.8369321310e-01
 3  1  1     4.1623493115e-02
 3  1  2     0.0000000000e+00
 3  1  3     0.0000000000e+00
 3  2  1     0.0000000000e+00
 3  2  2     1.3495287901e+00
 3  2  3     9.8369321310e-01
 3  3  1     0.0000000000e+00
 3  3  2     9.8654131329e-01
 3  3  3     7.8083703878e-01

   31
0.0000000000e+00 0.0000000000e+00 0.0000000000e+00
-9.8681618432e-11 -4.6165937084e+00 -3.2644247172e+00
     1      1      1
 1  1  1     0.0000000000e+00
 1  1  2    -7.1103756005e-02
 1  1  3    -5.0277948039e-02
 1  2  1    -3.9555901460e-02
 1  2  2     0.0000000000e+00
 1  2  3     0.0000000000e+00
 1  3  1    -2.7970246158e-02
 1  3  2     0.0000000000e+00
 1  3  3     0.0000000000e+00
 2  1  1    -3.9555901460e-02
 2  1  2     0.0000000000e+00
 2  1  3     0.0000000000e+00
 2  2  1     0.0000000000e+00
 2  2  2     4.0993408097e-01
 2  2  3     3.4580766081e-01
 2  3  1     0.0000000000e+00
 2  3  2     3.6811536269e-01
 2  3  3     2.4051891849e-01
 3  1  1    -2.7970246158e-02
 3  1  2     0.0000000000e+00
 3  1  3     0.0000000000e+00
 3  2  1     0.0000000000e+00
 3  2  2     3.6811536269e-01
 3  2  3     2.4051891849e-01
 3  3  1     0.0000000000e+00
 3  3  2     2.0897106394e-01
 3  3  3     9.1824364070e-02

   32
0.0000000000e+00 0.0000000000e+00 0.0000000000e+00
-9.8679953098e-11 -4.6165937084e+00 -3.2644247172e+00
     1      1      2
 1  1  1     6.5993145708e-02
 1  1  2    -6.2854855479e-02
 1  1  3    -4.4445094540e-02
 1  2  1    -6.0461488722e-02
 1  2  2     2.0615904296e-02
 1  2  3     3.9870483341e-02
 1  3  1    -4.2752728676e-02
 1  3  2     3.9870483341e-02
 1  3  3    -7.5767848428e-03
 2  1  1    -6.0461488722e-02
 2  1  2     2.0615904296e-02
 2  1  3     3.9870483341e-02
 2  2  1     2.4761337120e-02
 2  2  2     1.0457730387e-02
 2  2  3     1.5933740376e-03
 2  3  1     3.9870483341e-02
 2  3  2     3.2857399015e-03
 2  3  3     4.3744587685e-03
 3  1  1    -4.2752728676e-02
 3  1  2     3.9870483341e-02
 3  1  3    -7.5767848428e-03
 3  2  1     3.9870483341e-02