128  
2    

1    
  0.0300000000000000  -0.0000000000000029  -0.0000000000000020
  -0.0576429672    0.0000000059    0.0000000042
   0.0076778597    0.0000000016    0.0000000011
   0.0013576594   -0.0000000001   -0.0000000000
   0.0076919676    0.0000000015    0.0000000011
  -0.0007560206    0.0048666364    0.0016414181
   0.0011225486    0.0007253053   -0.0001376812
   0.0011244093   -0.0007107089    0.0001267356
  -0.0007038156   -0.0048481343   -0.0016293160
   0.0003272217    0.0005961160    0.0004073927
  -0.0001201067    0.0000203882    0.0000047120
   0.0003272190   -0.0005961116   -0.0004073926
  -0.0001201068   -0.0000203858   -0.0000047119
  -0.0007038129    0.0048481404    0.0016293173
  -0.0007560234   -0.0048666302   -0.0016414167
   0.0011225482   -0.0007253042    0.0001376810
   0.0011244096    0.0007107099   -0.0001267357
  -0.0007560206    0.0031697559    0.0040411694
   0.0011225486    0.0001119614    0.0007297181
   0.0011244093   -0.0001174155   -0.0007123080
  -0.0007038156   -0.0031521786   -0.0040277596
   0.0000112780    0.0007557404    0.0005343892
   0.0001363859    0.0000003686    0.0000002606
   0.0000204552   -0.0007521819   -0.0005318729
  -0.0001085926   -0.0000590072   -0.0000417244
  -0.0001797940    0.0006466037   -0.0001894371
  -0.0001859343   -0.0006335835    0.0001864915
   0.0002433794   -0.0001819210    0.0001479854
   0.0002516665    0.0001790367   -0.0001506850
  -0.0062039592   -0.0000044027    0.0000062293
   0.0024386016   -0.0014805914    0.0020938727
   0.0005598999    0.0000040820   -0.0000057725
   0.0022840833    0.0013653130   -0.0019308439
   0.0003272217    0.0005827988    0.0004262260
  -0.0001201067    0.0000112386    0.0000176515
   0.0003272190   -0.0005827973   -0.0004262219
  -0.0001201068   -0.0000112376   -0.0000176493
  -0.0001797940    0.0000369315    0.0006727696
  -0.0001859343   -0.0000353686   -0.0006595121
   0.0002433794    0.0000788817   -0.0002208452
   0.0002516665   -0.0000823883    0.0002190258
  -0.0006826071   -0.0000000000   -0.0000000000
   0.0003791684    0.0000000001    0.0000000001
   0.0023655053    0.0000000000    0.0000000000
   0.0003943201    0.0000000001    0.0000000001
  -0.0001859335    0.0000353689    0.0006595130
   0.0002433796   -0.0000788813    0.0002208456
   0.0002516664    0.0000823886   -0.0002190255
  -0.0001797948   -0.0000369312   -0.0006727687
  -0.0007038129    0.0031521819    0.0040277648
  -0.0007560234   -0.0031697526   -0.0040411641
   0.0011225482   -0.0001119611   -0.0007297170
   0.0011244096    0.0001174157    0.0007123090
  -0.0062039592    0.0000044055   -0.0000062274
   0.0024386016    0.0014805917   -0.0020938725
   0.0005598999   -0.0000040817    0.0000057727
   0.0022840833   -0.0013653128    0.0019308441
  -0.0001859335    0.0006335844   -0.0001864916
   0.0002433796    0.0001819215   -0.0001479852
   0.0002516664   -0.0001790363    0.0001506852
  -0.0001797948   -0.0006466028    0.0001894371
   0.0000204565    0.0007521833    0.0005318739
  -0.0001085926    0.0000590083    0.0000417252
   0.0000112767   -0.0007557389   -0.0005343881
   0.0001363859   -0.0000003692   -0.0000002611
  -0.0019096589   -0.0020443858   -0.0014455991
  -0.0008149057   -0.0000080176   -0.0000056693
  -0.0019035847    0.0020259530    0.0014325651
   0.0068901502    0.0000314607    0.0000222461
  -0.0000451837   -0.0004465111   -0.0000689846
  -0.0000458587    0.0004421355    0.0000690690
   0.0001782115    0.0005082655    0.0001478791
   0.0001919475   -0.0005129014   -0.0001632723
   0.0016179967   -0.0000227447    0.0000206183
  -0.0008095652    0.0016380594   -0.0002740605
  -0.0004728276   -0.0000126042   -0.0000038893
  -0.0007990147   -0.0016226514    0.0002548554
   0.0109513049   -0.0023319864    0.0032979202
  -0.0021742554    0.0003111187   -0.0004399885
  -0.0021528597   -0.0002827790    0.0003999098
   0.0097947240    0.0017019704   -0.0024069561
  -0.0000451837   -0.0002138763   -0.0003979798
  -0.0000458587    0.0002124974    0.0003938263
   0.0001782115    0.0003088436    0.0004299043
   0.0001919475   -0.0003249018   -0.0004291440
   0.0003236910   -0.0000022326   -0.0000015787
  -0.0000991802    0.0001979247    0.0001399539
  -0.0002417346   -0.0000212463   -0.0000150234
  -0.0001197036   -0.0002203805   -0.0001558326
   0.0002246355    0.0008467398   -0.0011974710
  -0.0004120043    0.0000983212   -0.0001390473
  -0.0003582290   -0.0000672794    0.0000951474
   0.0002144878   -0.0008446969    0.0011945818
  -0.0008095671   -0.0002876337   -0.0016357332
  -0.0004728276    0.0000078675    0.0000105866
  -0.0007990127    0.0003006032    0.0016147996
   0.0016179967   -0.0000118589    0.0000283133
   0.0016179967    0.0000118575   -0.0000283167
  -0.0008095652    0.0002876331    0.0016357307
  -0.0004728276   -0.0000078683   -0.0000105869
  -0.0007990147   -0.0003006038   -0.0016148022
   0.0002246355   -0.0008467399    0.0011974710
  -0.0004120043   -0.0000983213    0.0001390472
  -0.0003582290    0.0000672794   -0.0000951475
   0.0002144878    0.0008446969   -0.0011945818
  -0.0000991800   -0.0001979253   -0.0001399543
  -0.0002417346    0.0000212469    0.0000150238
  -0.0001197038    0.0002203800    0.0001558322
   0.0003236910    0.0000022330    0.0000015789
   0.0001782094   -0.0003088446   -0.0004299072
   0.0001919495    0.0003249008    0.0004291411
  -0.0000451829    0.0002138756    0.0003979782
  -0.0000458595   -0.0002124980   -0.0003938279
   0.0109513049    0.0023319802   -0.0032979246
  -0.0021742554   -0.0003111189    0.0004399884
  -0.0021528597    0.0002827789   -0.0003999099
   0.0097947240   -0.0017019765    0.0024069518
  -0.0008095671   -0.0016380620    0.0002740608
  -0.0004728276    0.0000126036    0.0000038887
  -0.0007990127    0.0016226488   -0.0002548551
   0.0016179967    0.0000227411   -0.0000206184
   0.0001782094   -0.0005082685   -0.0001478791
   0.0001919495    0.0005128984    0.0001632724
  -0.0000451829    0.0004465093    0.0000689845
  -0.0000458595   -0.0004421371   -0.0000690691
   0.0068901502   -0.0000314684   -0.0000222515
  -0.0019096569    0.0020443832    0.0014455972
  -0.0008149057    0.0000080179    0.0000056695
  -0.0019035866   -0.0020259556   -0.0014325669

65   
  0.0300000000000000  -0.0000000000000029  -0.0000000000000020
  -0.0018838007   -0.0020059752   -0.0014184386
   0.0068812244   -0.0001132005   -0.0000800448
  -0.0019074046    0.0020511404    0.0014503753
  -0.0008156622    0.0000154073    0.0000108946
   0.0097281564   -0.0016478146    0.0023303554
   0.0110291593    0.0024023210   -0.0033974015
  -0.0021591313   -0.0008619988    0.0012190503
  -0.0021706735    0.0008294980   -0.0011730874
   0.0016187011    0.0000157097    0.0000032023
  -0.0007995312   -0.0010712820    0.0006620092
  -0.0004748337   -0.0000067610   -0.0000152727
  -0.0008105056    0.0010936162   -0.0006426425
  -0.0000439314   -0.0004404837   -0.0000669785
   0.0001865116   -0.0010658203   -0.0005437121
   0.0001832097    0.0010514285    0.0005429838
  -0.0000477674    0.0004484029    0.0000714374
   0.0097281564    0.0016478086   -0.0023303597
   0.0110291593   -0.0024023272    0.0033973971
  -0.0021591313    0.0008619987   -0.0012190504
  -0.0021706735   -0.0008294981    0.0011730874
   0.0068812245    0.0001131928    0.0000800394
  -0.0019074067   -0.0020511431   -0.0014503772
  -0.0008156622   -0.0000154069   -0.0000108944
  -0.0018837988    0.0020059726    0.0014184368
   0.0001832077   -0.0010514316   -0.0005429838
  -0.0000477682   -0.0004484046   -0.0000714375
  -0.0000439306    0.0004404820    0.0000669784
   0.0001865137    0.0010658173    0.0005437121
  -0.0008105075   -0.0010936188    0.0006426428
   0.0016187010   -0.0000157133   -0.0000032024
  -0.0007995292    0.0010712794   -0.0006620089
  -0.0004748337    0.0000067605    0.0000152721
   0.0016187011    0.0000082557    0.0000137438
  -0.0007995312    0.0002670543   -0.0012306841
  -0.0004748337   -0.0000166529   -0.0000012835
  -0.0008105056   -0.0002413504    0.0012452854
   0.0001832077   -0.0008624072   -0.0008103046
  -0.0000477682   -0.0002168201   -0.0003989474
  -0.0000439306    0.0002099752    0.0003929643
   0.0001865137    0.0008678891    0.0008236248
  -0.0001224892   -0.0002102305   -0.0001486554
   0.0003236528   -0.0000072829   -0.0000051498
  -0.0000976717    0.0002101499    0.0001485984
  -0.0002418174   -0.0000029213   -0.0000020657
   0.0002146557   -0.0003152726    0.0004458627
   0.0002245270    0.0002799330   -0.0003958851
  -0.0003467198    0.0000660948   -0.0000934722
  -0.0004232455   -0.0000984391    0.0001392138
  -0.0000439314   -0.0002099758   -0.0003929659
   0.0001865116   -0.0008678901   -0.0008236277
   0.0001832097    0.0008624062    0.0008103017
  -0.0000477674    0.0002168195    0.0003989458
  -0.0008105075    0.0002413498   -0.0012452880
   0.0016187010   -0.0000082570   -0.0000137472
  -0.0007995292   -0.0002670548    0.0012306815
  -0.0004748337    0.0000166521    0.0000012831
   0.0002146557    0.0003152725   -0.0004458627
   0.0002245270   -0.0002799330    0.0003958850
  -0.0003467198   -0.0000660948    0.0000934721
  -0.0004232455    0.0000984390   -0.0001392138
   0.0003236528    0.0000072833    0.0000051501
  -0.0000976716   -0.0002101505   -0.0001485988
  -0.0002418174    0.0000029220    0.0000020661
  -0.0001224893    0.0002102299    0.0001486550
  -0.0729863829    0.0000000059    0.0000000042
   0.0114961291    0.0000000016    0.0000000011
   0.0036394568   -0.0000000001   -0.0000000000
   0.0112500164    0.0000000015    0.0000000011
   0.0002249521    0.0063864068   -0.0002664743
   0.0011702532    0.0008858841    0.0000025824
   0.0011573460   -0.0008644038   -0.0000079537
   0.0003561802   -0.0064009474    0.0002661387
   0.0004127046    0.0018621029    0.0003707765
  -0.0003524993    0.0000161480    0.0000117026
   0.0004127018   -0.0018620985   -0.0003707765
  -0.0003524994   -0.0000161456   -0.0000117024
   0.0003561829    0.0064009535   -0.0002661373
   0.0002249494   -0.0063864007    0.0002664757
   0.0011702528   -0.0008858830   -0.0000025825
   0.0011573463    0.0008644049    0.0000079536
   0.0002249521    0.0018775679    0.0061099868
   0.0011702532    0.0002977294    0.0008343587
   0.0011573460   -0.0002956335   -0.0008123165
   0.0003561802   -0.0018827312   -0.0061235840
   0.0004490381    0.0007173207    0.0005072223
   0.0002382670    0.0000098070    0.0000069346
   0.0004649845   -0.0006944372   -0.0004910413
  -0.0011281331   -0.0000401707   -0.0000284049
  -0.0000575535    0.0003993094   -0.0003220894
  -0.0000567700   -0.0004173230    0.0003286922
   0.0001480688   -0.0001226289    0.0001178603
   0.0001538881    0.0001089931   -0.0001215165
  -0.0029653554    0.0000377940   -0.0000534459
   0.0007819358   -0.0011442739    0.0016182479
   0.0003532062   -0.0000034324    0.0000048544
   0.0009193578    0.0011393293   -0.0016112547
   0.0004127046    0.0009702724    0.0016320153
  -0.0003524993    0.0000164159    0.0000113237
   0.0004127018   -0.0009702709   -0.0016320112
  -0.0003524994   -0.0000164150   -0.0000113214
  -0.0000575535   -0.0001705657    0.0004838356
  -0.0000567700    0.0001707863   -0.0005030200
   0.0001480688    0.0000702434   -0.0001549024
   0.0001538881   -0.0000782358    0.0001432652
  -0.0012686584   -0.0000000000   -0.0000000000
   0.0002602767    0.0000000001    0.0000000001
   0.0007445253    0.0000000000    0.0000000000
   0.0002988281    0.0000000001    0.0000000001
  -0.0000567692   -0.0001707861    0.0005030209
   0.0001480689   -0.0000702431    0.0001549028
   0.0001538880    0.0000782361   -0.0001432649
  -0.0000575544    0.0001705659   -0.0004838348
   0.0003561829    0.0018827345    0.0061235892
   0.0002249494   -0.0018775646   -0.0061099815
   0.0011702528   -0.0002977291   -0.0008343576
   0.0011573463    0.0002956337    0.0008123175
  -0.0029653554   -0.0000377912    0.0000534478
   0.0007819358    0.0011442741   -0.0016182477
   0.0003532062    0.0000034326   -0.0000048542
   0.0009193578   -0.0011393291    0.0016112549
  -0.0000567692    0.0004173239   -0.0003286923
   0.0001480689    0.0001226293   -0.0001178601
   0.0001538880   -0.0001089927    0.0001215167
  -0.0000575544   -0.0003993085    0.0003220894
   0.0004649858    0.0006944387    0.0004910423
  -0.0011281330    0.0000401717    0.0000284057
   0.0004490368   -0.0007173191   -0.0005072212
   0.0002382670   -0.0000098075   -0.0000069350
