 128  128
   1   1
     1.921391503749944    -0.000000000000159    -0.000000000000102
    -0.000000000000159     1.921391503749559     0.000000000000204
    -0.000000000000102     0.000000000000204     1.921391503749681
   1   2
    -0.256110308387794     0.000000000002189     0.000000000001536
     0.000000000002269     0.117812363794255    -0.062935874609909
     0.000000000001611    -0.062935874609998     0.162314747509672
   1   3
    -0.045282680446834     0.000000000000076     0.000000000000035
     0.000000000000162     0.000573716478751    -0.015683336709974
     0.000000000000143    -0.015683336710103     0.011663510217915
   1   4
    -0.256110308387794     0.000000000002189     0.000000000001536
     0.000000000002269     0.117812363794255    -0.062935874609909
     0.000000000001611    -0.062935874609998     0.162314747509672
   1   5
     0.024331695747639    -0.161913266578636    -0.054504066222835
    -0.161913266581038    -0.162629640338600     0.031467937305398
    -0.054504066222462     0.031467937306136     0.162314747513199
   1   6
    -0.037445519271821    -0.023935966881254     0.004413267646582
    -0.023935966880783    -0.009806645426605     0.002548001263868
     0.004413267647257     0.002548001264037     0.017655898448572
   1   7
    -0.037445519271468     0.023935966881646    -0.004413267646351
     0.023935966881700    -0.009806645427662     0.002548001263776
    -0.004413267646239     0.002548001263660     0.017655898448670
   1   8
     0.024331695750117     0.161913266581666     0.054504066223122
     0.161913266577188    -0.162629640343953     0.031467937303306
     0.054504066225129     0.031467937299644     0.162314747510310
   1   9
    -0.010890382752484    -0.019856402331577    -0.013582168007136
    -0.019856402331793    -0.033818581215142     0.007841668355333
    -0.013582168007089     0.007841668355352     0.011663510218441
   1  10
     0.004012791495243    -0.000000000000131    -0.000000000000124
    -0.000000000000509    -0.051264956193690    -0.005096002527622
     0.000000000000027    -0.005096002528588     0.017655898448548
   1  11
    -0.010890382752596     0.019856402331984     0.013582168007315
     0.019856402331553    -0.033818581215561     0.007841668354637
     0.013582168007587     0.007841668354128     0.011663510218085
   1  12
     0.004012791495243    -0.000000000000131    -0.000000000000124
    -0.000000000000509    -0.051264956193690    -0.005096002527622
     0.000000000000027    -0.005096002528588     0.017655898448548
   1  13
     0.024331695747639    -0.161913266578636    -0.054504066222835
    -0.161913266581038    -0.162629640338600     0.031467937305398
    -0.054504066222462     0.031467937306136     0.162314747513199
   1  14
     0.024331695750117     0.161913266581666     0.054504066223122
     0.161913266577188    -0.162629640343953     0.031467937303306
     0.054504066225129     0.031467937299644     0.162314747510310
   1  15
    -0.037445519271468     0.023935966881646    -0.004413267646351
     0.023935966881700    -0.009806645427662     0.002548001263776
    -0.004413267646239     0.002548001263660     0.017655898448670
   1  16
    -0.037445519271821    -0.023935966881254     0.004413267646582
    -0.023935966880783    -0.009806645426605     0.002548001263868
     0.004413267647257     0.002548001264037     0.017655898448572
   1  17
     0.024331695748551    -0.105358015297164    -0.134485269609367
    -0.105358015295910     0.145988652736411    -0.077645106606416
    -0.134485269613784    -0.077645106607142    -0.146303545566108
   1  18
    -0.037445519271755    -0.003817786986711    -0.024038135210288
    -0.003817786986023     0.016206023771001    -0.006648866128709
    -0.024038135210266    -0.006648866129148    -0.008356770749310
   1  19
    -0.037445519271418     0.003817786987057     0.024038135210501
     0.003817786987206     0.016206023770821    -0.006648866129420
     0.024038135210781    -0.006648866129553    -0.008356770750081
   1  20
     0.024331695750146     0.105358015297399     0.134485269611938
     0.105358015297171     0.145988652731450    -0.077645106612997
     0.134485269608781    -0.077645106610040    -0.146303545568486
   1  21
    -0.000513162506665    -0.025140693106841    -0.017777154579784
    -0.025140693107343    -0.020726332993477    -0.017493202686579
    -0.017777154580302    -0.017493202686804    -0.008356770749459
   1  22
    -0.004540309583454    -0.000000000000252    -0.000000000000171
    -0.000000000000151    -0.004540309583834     0.000000000000222
    -0.000000000000120     0.000000000000168    -0.004540309583629
   1  23
    -0.000513162506029     0.025140693106666     0.017777154579642
     0.025140693106756    -0.020726332994661    -0.017493202687220
     0.017777154579916    -0.017493202687491    -0.008356770750098
   1  24
     0.003538268353158    -0.000000000000291    -0.000000000000193
    -0.000000000001273    -0.106057486408663    -0.077495901382034
    -0.000000000000861    -0.077495901382168    -0.051259609028824
   1  25
     0.006099438527114    -0.021322906120687     0.006260980630501
    -0.021322906120085    -0.027338934027367     0.024142068816262
     0.006260980630428     0.024142068816680    -0.008356770749182
   1  26
     0.006099438527448     0.021322906120294    -0.006260980630806
     0.021322906119613    -0.027338934028295     0.024142068816248
    -0.006260980630418     0.024142068816373    -0.008356770749006
   1  27
    -0.008241784231591     0.006015575821556    -0.004974890278437
     0.006015575821364    -0.015187972871131    -0.002872254241371
    -0.004974890278244    -0.002872254241638    -0.008830670814201
   1  28
    -0.008241784231186    -0.006015575821438     0.004974890278306
    -0.006015575821472    -0.015187972871098    -0.002872254241326
     0.004974890278397    -0.002872254241318    -0.008830670814575
   1  29
     0.206817131228666    -0.000000000001840    -0.000000000001298
    -0.000000000003316    -0.036496782744246     0.155290213219810
    -0.000000000002316     0.155290213224236    -0.146303545564617
   1  30
    -0.078658547718340     0.047456353886254    -0.067113419285159
     0.047456353886268    -0.023860670338629     0.038747950691426
    -0.067113419285101     0.038747950691326    -0.051259609026858
   1  31
    -0.018661067190949    -0.000000000000056    -0.000000000000069
     0.000000000000055    -0.004768689911749     0.005744508482925
     0.000000000000048     0.005744508482879    -0.008830670814208
   1  32
    -0.078658547718465    -0.047456353885340     0.067113419285955
    -0.047456353883897    -0.023860670336475     0.038747950689747
     0.067113419286692     0.038747950691318    -0.051259609028925
   1  33
    -0.010890382752554    -0.019424191578536    -0.014193406315927
    -0.019424191578172     0.011538741721214    -0.008194566956605
    -0.014193406316411    -0.008194566956614    -0.033693812718384
   1  34
     0.004012791495332    -0.000000000000147    -0.000000000000143
    -0.000000000000230     0.006794987537824    -0.025623292491645
    -0.000000000000470    -0.025623292491223    -0.040404045283626
   1  35
    -0.010890382752570     0.019424191578746     0.014193406316329
     0.019424191578724     0.011538741720246    -0.008194566957468
     0.014193406316000    -0.008194566957168    -0.033693812718195
   1  36
     0.004012791495332    -0.000000000000147    -0.000000000000143
    -0.000000000000230     0.006794987537824    -0.025623292491645
    -0.000000000000470    -0.025623292491223    -0.040404045283626
   1  37
     0.006099438527107    -0.001204726225745    -0.022190422226894
    -0.001204726225716     0.004708340505584     0.012811646246436
    -0.022190422226508     0.012811646246252    -0.040404045282668
   1  38
     0.006099438527481     0.001204726225300     0.022190422226607
     0.001204726225566     0.004708340505527     0.012811646245830
     0.022190422226080     0.012811646245944    -0.040404045283344
   1  39
    -0.008241784231532    -0.002685179594905     0.007329836034279
    -0.002685179594789    -0.011342362555149    -0.004231882807577
     0.007329836034156    -0.004231882807544    -0.012676281130320
   1  40
    -0.008241784231270     0.002685179594976    -0.007329836034182
     0.002685179594882    -0.011342362555164    -0.004231882807272
    -0.007329836034218    -0.004231882807559    -0.012676281130469
   1  41
     0.022753303957708    -0.000000000000205    -0.000000000000135
    -0.000000000000451    -0.022104944989057     0.016389133914175
    -0.000000000000315     0.016389133914575    -0.033693812718220
   1  42
    -0.012892651717076     0.000000000000076     0.000000000000057
     0.000000000000216    -0.006691495069434     0.008463765614876
     0.000000000000168     0.008463765615011    -0.012676281130347
   1  43
    -0.078843606249871    -0.000000000000135    -0.000000000000147
    -0.000000000000125    -0.078843606250093     0.000000000000152
    -0.000000000000065     0.000000000000096    -0.078843606249976
   1  44
    -0.012892651717076     0.000000000000076     0.000000000000057
     0.000000000000216    -0.006691495069434     0.008463765614876
     0.000000000000168     0.008463765615011    -0.012676281130347
   1  45
     0.006099438527107    -0.001204726225745    -0.022190422226894
    -0.001204726225716     0.004708340505584     0.012811646246436
    -0.022190422226508     0.012811646246252    -0.040404045282668
   1  46
    -0.008241784231270     0.002685179594976    -0.007329836034182
     0.002685179594882    -0.011342362555164    -0.004231882807272
    -0.007329836034218    -0.004231882807559    -0.012676281130469
   1  47
    -0.008241784231532    -0.002685179594905     0.007329836034279
    -0.002685179594789    -0.011342362555149    -0.004231882807577
     0.007329836034156    -0.004231882807544    -0.012676281130320
   1  48
     0.006099438527481     0.001204726225300     0.022190422226607
     0.001204726225566     0.004708340505527     0.012811646245830
     0.022190422226080     0.012811646245944    -0.040404045283344
   1  49
     0.024331695748551    -0.105358015297164    -0.134485269609367
    -0.105358015295910     0.145988652736411    -0.077645106606416
    -0.134485269613784    -0.077645106607142    -0.146303545566108
   1  50
     0.024331695750146     0.105358015297399     0.134485269611938
     0.105358015297171     0.145988652731450    -0.077645106612997
     0.134485269608781    -0.077645106610040    -0.146303545568486
   1  51
    -0.037445519271418     0.003817786987057     0.024038135210501
     0.003817786987206     0.016206023770821    -0.006648866129420
     0.024038135210781    -0.006648866129553    -0.008356770750081
   1  52
    -0.037445519271755    -0.003817786986711    -0.024038135210288
    -0.003817786986023     0.016206023771001    -0.006648866128709
    -0.024038135210266    -0.006648866129148    -0.008356770749310
   1  53
     0.206817131228666    -0.000000000001840    -0.000000000001298
    -0.000000000003316    -0.036496782744246     0.155290213219810
    -0.000000000002316     0.155290213224236    -0.146303545564617
   1  54
    -0.078658547718465    -0.047456353885340     0.067113419285955
    -0.047456353883897    -0.023860670336475     0.038747950689747
     0.067113419286692     0.038747950691318    -0.051259609028925
   1  55
    -0.018661067190949    -0.000000000000056    -0.000000000000069
     0.000000000000055    -0.004768689911749     0.005744508482925
     0.000000000000048     0.005744508482879    -0.008830670814208
   1  56
    -0.078658547718340     0.047456353886254    -0.067113419285159
     0.047456353886268    -0.023860670338629     0.038747950691426
    -0.067113419285101     0.038747950691326    -0.051259609026858
   1  57
     0.006099438527114    -0.021322906120687     0.006260980630501
    -0.021322906120085    -0.027338934027367     0.024142068816262
     0.006260980630428     0.024142068816680    -0.008356770749182
   1  58
    -0.008241784231186    -0.006015575821438     0.004974890278306
    -0.006015575821472    -0.015187972871098    -0.002872254241326
     0.004974890278397    -0.002872254241318    -0.008830670814575
   1  59
    -0.008241784231591     0.006015575821556    -0.004974890278437
     0.006015575821364    -0.015187972871131    -0.002872254241371
    -0.004974890278244    -0.002872254241638    -0.008830670814201
   1  60
     0.006099438527448     0.021322906120294    -0.006260980630806
     0.021322906119613    -0.027338934028295     0.024142068816248
    -0.006260980630418     0.024142068816373    -0.008356770749006
   1  61
    -0.000513162506665    -0.025140693106841    -0.017777154579784
    -0.025140693107343    -0.020726332993477    -0.017493202686579
    -0.017777154580302    -0.017493202686804    -0.008356770749459
   1  62
     0.003538268353158    -0.000000000000291    -0.000000000000193
    -0.000000000001273    -0.106057486408663    -0.077495901382034
    -0.000000000000861    -0.077495901382168    -0.051259609028824
   1  63
    -0.000513162506029     0.025140693106666     0.017777154579642
     0.025140693106756    -0.020726332994661    -0.017493202687220
     0.017777154579916    -0.017493202687491    -0.008356770750098
   1  64
    -0.004540309583454    -0.000000000000252    -0.000000000000171
    -0.000000000000151    -0.004540309583834     0.000000000000222
    -0.000000000000120     0.000000000000168    -0.004540309583629
   1  65
     0.063367985111562     0.067729982565955     0.047892329962550
     0.067729982566011    -0.014839862225753     0.027650649595679
     0.047892329962602     0.027650649595617    -0.034391824058075
   1  66
     0.027175083175449    -0.000000000000409    -0.000000000000306
    -0.000000000000354    -0.007028104281838     0.002658496921561
    -0.000000000000248     0.002658496921480    -0.008907945482462
   1  67
     0.063367985109953    -0.067729982568010    -0.047892329963880
    -0.067729982567658    -0.014839862223122     0.027650649596766
    -0.047892329963864     0.027650649596879    -0.034391824056203
   1  68
    -0.229353478329445    -0.000000000001906    -0.000000000001372
    -0.000000000001824    -0.384824180506258    -0.109934387785749
    -0.000000000001277    -0.109934387785763    -0.307088829419567
   1  69
     0.001522692582883     0.014810414613857     0.002302325869833
     0.014810414614137     0.018624286310548    -0.001329248460495
     0.002302325869889    -0.001329248460660    -0.008907945482760
   1  70
     0.001522692582394    -0.014810414614337    -0.002302325870013
    -0.014810414613811     0.018624286311197    -0.001329248460458
    -0.002302325870143    -0.001329248460225    -0.008907945482475
   1  71
    -0.006170121190205    -0.017019644102145    -0.005193392997635
    -0.035296310517358     0.068026125795717     0.013185527860923
    -0.018116947758060     0.035569781320845    -0.008793034943471
   1  72
    -0.006170121190098     0.017019644102024     0.005193392997515
     0.035296310518599     0.068026125794793     0.013185527860310
     0.018116947758425     0.035569781320157    -0.008793034943709
   1  73
    -0.053943785890820     0.000000000000261     0.000000000000528
     0.000000000001354     0.102471908777228    -0.055301299191092
     0.000000000000220    -0.055301299191689    -0.034391824059003
   1  74
     0.026823591186956    -0.054345239241265     0.008822305590064
    -0.036068572824727     0.035032413419215    -0.011090374197236
     0.021745860350024    -0.033474627656311    -0.008793034944405
   1  75
     0.015787107182811    -0.000000000000271    -0.000000000000285
    -0.000000000000134     0.015787107182489     0.000000000000338
    -0.000000000000184     0.000000000000231    -0.002389764287625
   1  76
     0.026823591187446     0.054345239240989    -0.008822305590404
     0.036068572824308     0.035032413417015    -0.011090374197432
    -0.021745860350990    -0.033474627657115    -0.008793034943679
   1  77
    -0.345956504966894     0.067320788818121    -0.095205972570627
     0.067320788817008    -0.268221153874657     0.054967193891006
    -0.095205972567508     0.054967193890138    -0.307088829413004
   1  78
     0.072130536911754    -0.009910595515253     0.014015698587507
    -0.028187261931889    -0.010274532305814    -0.002095153662453
     0.039862808107623    -0.002095153662565    -0.008793034944050
   1  79
     0.072130536911774     0.009910595514082    -0.014015698588353
     0.028187261929371    -0.010274532306202    -0.002095153662324
    -0.039862808109393    -0.002095153662358    -0.008793034943630
   1  80
    -0.345956504966910    -0.067320788813781     0.095205972573665
    -0.067320788810257    -0.268221153869143     0.054967193887678
     0.095205972572307     0.054967193889573    -0.307088829418509
   1  81
     0.001522692582731     0.007107458518010     0.013195950851031
     0.007107458518061    -0.006684293594949     0.007618685775782
     0.013195950851498     0.007618685775813     0.016400634423143
   1  82
     0.001522692582431    -0.007107458518204    -0.013195950851402
    -0.007107458518148    -0.006684293594667     0.007618685776380
    -0.013195950850979     0.007618685776044     0.016400634423582
   1  83
    -0.006170121190549    -0.010569592575147    -0.014315143344870
    -0.028846258990866     0.015064742800538     0.054294457848155
    -0.027238698105006     0.031910204388972     0.044168348052505
   1  84
    -0.006170121189995     0.010569592575012     0.014315143344822
     0.028846258991565     0.015064742799654     0.054294457847696
     0.027238698105875     0.031910204388439     0.044168348051901
   1  85
    -0.010787786683431     0.000000000000058     0.000000000000025
     0.000000000000174     0.005626185671221    -0.015237371551834
     0.000000000000141    -0.015237371552326     0.016400634422993
   1  86
     0.003669192869188    -0.006996281091098    -0.004947117802687
    -0.006996281090777     0.011747802411552    -0.002856219794560
    -0.004947117802527    -0.002856219794769     0.013767454797058
   1  87
     0.008067587388079    -0.000000000000176    -0.000000000000104
     0.000000000000094     0.014424746552389     0.004495190354680
     0.000000000000092     0.004495190354583     0.011246166970258
   1  88
     0.003669192869397     0.006996281090686     0.004947117802351
     0.006996281090913     0.011747802411129    -0.002856219794837
     0.004947117802618    -0.002856219795019     0.013767454796944
   1  89
    -0.007311537581333    -0.028187261930966     0.039862808108710
    -0.009910595514554     0.016206159192041    -0.039544506719476
     0.014015698587866    -0.039544506719211     0.044168348050432
   1  90
     0.012835456761565    -0.002752730666547     0.003892949041617
    -0.002752730666473     0.009656877179010    -0.002247595176959
     0.003892949041640    -0.002247595177196     0.011246166970142
   1  91
     0.012835456761578     0.002752730666039    -0.003892949041953
     0.002752730666005     0.009656877178919    -0.002247595176997
    -0.003892949041925    -0.002247595177051     0.011246166970301
   1  92
    -0.007311537581334     0.028187261930864    -0.039862808108855
     0.009910595514330     0.016206159191143    -0.039544506718479
    -0.014015698587992    -0.039544506719538     0.044168348051383
   1  93
     0.026823591187573     0.009797330268203     0.054177951453522
    -0.008479336147993    -0.017928969576796    -0.014749951129315
     0.041254396693030     0.007634302329916     0.044168348050657
   1  94
     0.015787107182792    -0.000000000000282    -0.000000000000161
    -0.000000000000207    -0.000370111902187     0.005712439590040
    -0.000000000000019     0.005712439589787     0.013767454797216
   1  95
     0.026823591187014    -0.009797330268659    -0.054177951453759
     0.008479336146910    -0.017928969576828    -0.014749951127752
    -0.041254396693090     0.007634302330939     0.044168348052226
   1  96
    -0.053943785891872     0.000000000000556    -0.000000000000114
     0.000000000000599    -0.053943785890535     0.000000000000193
     0.000000000001317    -0.000000000001305     0.122023870611584
   1  97
    -0.053943785891872     0.000000000000556    -0.000000000000114
     0.000000000000599    -0.053943785890535     0.000000000000193
     0.000000000001317    -0.000000000001305     0.122023870611584
   1  98
     0.026823591187014    -0.009797330268659    -0.054177951453759
     0.008479336146910    -0.017928969576828    -0.014749951127752
    -0.041254396693090     0.007634302330939     0.044168348052226
   1  99
     0.015787107182792    -0.000000000000282    -0.000000000000161
    -0.000000000000207    -0.000370111902187     0.005712439590040
    -0.000000000000019     0.005712439589787     0.013767454797216
   1 100
     0.026823591187573     0.009797330268203     0.054177951453522
    -0.008479336147993    -0.017928969576796    -0.014749951129315
     0.041254396693030     0.007634302329916     0.044168348050657
   1 101
    -0.007311537581334     0.028187261930864    -0.039862808108855
     0.009910595514330     0.016206159191143    -0.039544506718479
    -0.014015698587992    -0.039544506719538     0.044168348051383
   1 102
     0.012835456761578     0.002752730666039    -0.003892949041953
     0.002752730666005     0.009656877178919    -0.002247595176997
    -0.003892949041925    -0.002247595177051     0.011246166970301
   1 103
     0.012835456761565    -0.002752730666547     0.003892949041617
    -0.002752730666473     0.009656877179010    -0.002247595176959
     0.003892949041640    -0.002247595177196     0.011246166970141
   1 104
    -0.007311537581333    -0.028187261930966     0.039862808108710
    -0.009910595514554     0.016206159192041    -0.039544506719476
     0.014015698587866    -0.039544506719211     0.044168348050432
   1 105
     0.003669192869397     0.006996281090686     0.004947117802351
     0.006996281090913     0.011747802411129    -0.002856219794837
     0.004947117802618    -0.002856219795019     0.013767454796944
   1 106
     0.008067587388079    -0.000000000000176    -0.000000000000104
     0.000000000000094     0.014424746552389     0.004495190354680
     0.000000000000092     0.004495190354583     0.011246166970258
   1 107
     0.003669192869188    -0.006996281091098    -0.004947117802687
    -0.006996281090777     0.011747802411552    -0.002856219794560
    -0.004947117802527    -0.002856219794769     0.013767454797058
   1 108
    -0.010787786683431     0.000000000000058     0.000000000000025
     0.000000000000174     0.005626185671221    -0.015237371551834
     0.000000000000141    -0.015237371552326     0.016400634422993
   1 109
    -0.006170121189995     0.010569592575012     0.014315143344822
     0.028846258991565     0.015064742799654     0.054294457847696
     0.027238698105875     0.031910204388439     0.044168348051901
   1 110
    -0.006170121190549    -0.010569592575147    -0.014315143344870
    -0.028846258990866     0.015064742800538     0.054294457848155
    -0.027238698105006     0.031910204388972     0.044168348052505
   1 111
     0.001522692582431    -0.007107458518204    -0.013195950851402
    -0.007107458518148    -0.006684293594667     0.007618685776380
    -0.013195950850979     0.007618685776044     0.016400634423582
   1 112
     0.001522692582731     0.007107458518010     0.013195950851031
     0.007107458518061    -0.006684293594949     0.007618685775782
     0.013195950851498     0.007618685775813     0.016400634423143
   1 113
    -0.345956504966910    -0.067320788813781     0.095205972573665
    -0.067320788810257    -0.268221153869143     0.054967193887678
     0.095205972572307     0.054967193889573    -0.307088829418509
   1 114
     0.072130536911774     0.009910595514082    -0.014015698588353
     0.028187261929371    -0.010274532306202    -0.002095153662324
    -0.039862808109393    -0.002095153662358    -0.008793034943630
   1 115
     0.072130536911754    -0.009910595515253     0.014015698587507
    -0.028187261931889    -0.010274532305814    -0.002095153662453
     0.039862808107623    -0.002095153662565    -0.008793034944050
   1 116
    -0.345956504966894     0.067320788818121    -0.095205972570627
     0.067320788817008    -0.268221153874657     0.054967193891006
    -0.095205972567508     0.054967193890138    -0.307088829413004
   1 117
     0.026823591187446     0.054345239240989    -0.008822305590404
     0.036068572824308     0.035032413417015    -0.011090374197432
    -0.021745860350990    -0.033474627657115    -0.008793034943679
   1 118
     0.015787107182811    -0.000000000000271    -0.000000000000285
    -0.000000000000134     0.015787107182489     0.000000000000338
    -0.000000000000184     0.000000000000231    -0.002389764287625
   1 119
     0.026823591186956    -0.054345239241265     0.008822305590064
    -0.036068572824727     0.035032413419215    -0.011090374197236
     0.021745860350024    -0.033474627656311    -0.008793034944405
   1 120
    -0.053943785890820     0.000000000000261     0.000000000000528
     0.000000000001354     0.102471908777228    -0.055301299191092
     0.000000000000220    -0.055301299191689    -0.034391824059003
   1 121
    -0.006170121190098     0.017019644102024     0.005193392997515
     0.035296310518599     0.068026125794793     0.013185527860310
     0.018116947758425     0.035569781320157    -0.008793034943709
   1 122
    -0.006170121190205    -0.017019644102145    -0.005193392997635
    -0.035296310517358     0.068026125795717     0.013185527860923
    -0.018116947758060     0.035569781320845    -0.008793034943471
   1 123
     0.001522692582394    -0.014810414614337    -0.002302325870013
    -0.014810414613811     0.018624286311197    -0.001329248460458
    -0.002302325870143    -0.001329248460225    -0.008907945482475
   1 124
     0.001522692582883     0.014810414613857     0.002302325869833
     0.014810414614137     0.018624286310548    -0.001329248460495
     0.002302325869889    -0.001329248460660    -0.008907945482760
   1 125
    -0.229353478329445    -0.000000000001906    -0.000000000001372
    -0.000000000001824    -0.384824180506258    -0.109934387785749
    -0.000000000001277    -0.109934387785763    -0.307088829419567
   1 126
     0.063367985109953    -0.067729982568010    -0.047892329963880
    -0.067729982567658    -0.014839862223122     0.027650649596766
    -0.047892329963864     0.027650649596879    -0.034391824056203
   1 127
     0.027175083175449    -0.000000000000409    -0.000000000000306
    -0.000000000000354    -0.007028104281838     0.002658496921561
    -0.000000000000248     0.002658496921480    -0.008907945482462
   1 128
     0.063367985111562     0.067729982565955     0.047892329962550
     0.067729982566011    -0.014839862225753     0.027650649595679
     0.047892329962602     0.027650649595617    -0.034391824058076
   2   1
    -0.256110308387794     0.000000000002269     0.000000000001611
     0.000000000002189     0.117812363794255    -0.062935874609998
     0.000000000001536    -0.062935874609909     0.162314747509672
   2   2
     1.921391503750253    -0.000000000000108    -0.000000000000093
    -0.000000000000108     1.921391503749725     0.000000000000265
    -0.000000000000093     0.000000000000265     1.921391503749770
   2   3
    -0.256110308387531     0.000000000002255     0.000000000001571
     0.000000000002260     0.117812363794493    -0.062935874609862
     0.000000000001603    -0.062935874609902     0.162314747509815
   2   4
    -0.045282680446791     0.000000000000141     0.000000000000083
     0.000000000000141     0.000573716478678    -0.015683336710048
     0.000000000000083    -0.015683336710048     0.011663510217859
   2   5
     0.024331695749328     0.161913266579009     0.054504066221305
     0.161913266578263    -0.162629640346404     0.031467937301869
     0.054504066223905     0.031467937300895     0.162314747511163
   2   6
     0.024331695748741    -0.161913266579048    -0.054504066223758
    -0.161913266581547    -0.162629640338253     0.031467937305987
    -0.054504066222210     0.031467937306101     0.162314747512070
   2   7
    -0.037445519271912    -0.023935966881615     0.004413267646594
    -0.023935966881640    -0.009806645426892     0.002548001263942
     0.004413267646630     0.002548001263915     0.017655898448624
   2   8
    -0.037445519272235     0.023935966882155    -0.004413267646410
     0.023935966881701    -0.009806645427375     0.002548001263756
    -0.004413267645862     0.002548001263371     0.017655898448728
   2   9
     0.004012791495783     0.000000000000168     0.000000000000035
    -0.000000000000451    -0.051264956194070    -0.005096002527733
     0.000000000000054    -0.005096002527854     0.017655898448694
   2  10
    -0.010890382753093    -0.019856402332053    -0.013582168007448
    -0.019856402331870    -0.033818581214694     0.007841668355186
    -0.013582168007290     0.007841668354785     0.011663510218544
   2  11
     0.004012791495619    -0.000000000000156    -0.000000000000163
    -0.000000000000614    -0.051264956193541    -0.005096002527610
    -0.000000000000155    -0.005096002528499     0.017655898448587
   2  12
    -0.010890382752714     0.019856402332092     0.013582168007461
     0.019856402331627    -0.033818581215543     0.007841668354598
     0.013582168007758     0.007841668354117     0.011663510218083
   2  13
    -0.037445519271437    -0.023935966881151     0.004413267646629
    -0.023935966880984    -0.009806645426533     0.002548001263806
     0.004413267647086     0.002548001264092     0.017655898448633
   2  14
     0.024331695747167    -0.161913266582127    -0.054504066223048
    -0.161913266580071    -0.162629640336923     0.031467937306491
    -0.054504066223620     0.031467937303171     0.162314747511805
   2  15
     0.024331695751604     0.161913266578608     0.054504066223211
     0.161913266578582    -0.162629640345301     0.031467937302358