  686

    1
0.0000000000e+00 0.0000000000e+00 0.0000000000e+00
0.0000000000e+00 0.0000000000e+00 0.0000000000e+00
     1      1      1
 1  1  1     0.0000000000e+00
 1  1  2     0.0000000000e+00
 1  1  3     0.0000000000e+00
 1  2  1     0.0000000000e+00
 1  2  2     0.0000000000e+00
 1  2  3     0.0000000000e+00
 1  3  1     0.0000000000e+00
 1  3  2     0.0000000000e+00
 1  3  3     0.0000000000e+00
 2  1  1     0.0000000000e+00
 2  1  2     0.0000000000e+00
 2  1  3     0.0000000000e+00
 2  2  1     0.0000000000e+00
 2  2  2     0.0000000000e+00
 2  2  3     0.0000000000e+00
 2  3  1     0.0000000000e+00
 2  3  2     0.0000000000e+00
 2  3  3     0.0000000000e+00
 3  1  1     0.0000000000e+00
 3  1  2     0.0000000000e+00
 3  1  3     0.0000000000e+00
 3  2  1     0.0000000000e+00
 3  2  2     0.0000000000e+00
 3  2  3     0.0000000000e+00
 3  3  1     0.0000000000e+00
 3  3  2     0.0000000000e+00
 3  3  3     0.0000000000e+00

    2
0.0000000000e+00 0.0000000000e+00 0.0000000000e+00
0.0000000000e+00 0.0000000000e+00 0.0000000000e+00
     1      1      2
 1  1  1     2.9248118052e-02
 1  1  2     3.3087212539e-02
 1  1  3     2.3396192357e-02
 1  2  1     4.1863739317e-02
 1  2  2     1.4816502781e-02
 1  2  3     3.1906265169e-02
 1  3  1     2.9602133957e-02
 1  3  2     3.1906265169e-02
 1  3  3    -7.7446336812e-03
 2  1  1     4.1863739317e-02
 2  1  2     1.4816502781e-02
 2  1  3     3.1906265169e-02
 2  2  1    -3.8488751418e-04
 2  2  2    -1.6423018618e-02
 2  2  3    -1.3445989212e-02
 2  3  1     3.1906265169e-02
 2  3  2    -7.2400476111e-03
 2  3  3    -4.4713663406e-03
 3  1  1     2.9602133957e-02
 3  1  2     3.1906265169e-02
 3  1  3    -7.7446336812e-03
 3  2  1     3.1906265169e-02
 3  2  2    -7.2400476111e-03
 3  2  3    -4.4713663406e-03
 3  3  1    -2.2946023976e-02
 3  3  2    -1.3247893120e-02
 3  3  3    -7.5345136816e-03

    3
0.0000000000e+00 0.0000000000e+00 0.0000000000e+00
3.9980874304e+00 -3.8090000000e-13 -2.6930000000e-13
     1      1      1
 1  1  1    -9.4297752745e-02
 1  1  2     0.0000000000e+00
 1  1  3     0.0000000000e+00
 1  2  1     0.0000000000e+00
 1  2  2     3.1028337663e-02
 1  2  3    -1.3471117101e-02
 1  3  1     0.0000000000e+00
 1  3  2    -1.3471117101e-02
 1  3  3     4.0553855915e-02
 2  1  1     0.0000000000e+00
 2  1  2     3.1028337663e-02
 2  1  3    -1.3471117101e-02
 2  2  1    -3.2366622993e-02
 2  2  2     0.0000000000e+00
 2  2  3     0.0000000000e+00
 2  3  1     6.7900090119e-03
 2  3  2     0.0000000000e+00
 2  3  3     0.0000000000e+00
 3  1  1     0.0000000000e+00
 3  1  2    -1.3471117101e-02
 3  1  3     4.0553855915e-02
 3  2  1     6.7900090119e-03
 3  2  2     0.0000000000e+00
 3  2  3     0.0000000000e+00
 3  3  1    -3.7167884409e-02
 3  3  2     0.0000000000e+00
 3  3  3     0.0000000000e+00

    4
0.0000000000e+00 0.0000000000e+00 0.0000000000e+00
-7.9961748609e+00 7.6180000000e-13 5.3860000000e-13
     1      1      2
 1  1  1    -2.9248118048e-02
 1  1  2     3.3087212536e-02
 1  1  3     2.3396192355e-02
 1  2  1     4.1863739316e-02
 1  2  2    -1.4816502781e-02
 1  2  3    -3.1906265169e-02
 1  3  1     2.9602133956e-02
 1  3  2    -3.1906265169e-02
 1  3  3     7.7446336810e-03
 2  1  1     4.1863739316e-02
 2  1  2    -1.4816502781e-02
 2  1  3    -3.1906265169e-02
 2  2  1     3.8488751385e-04
 2  2  2    -1.6423018617e-02
 2  2  3    -1.3445989212e-02
 2  3  1    -3.1906265169e-02
 2  3  2    -7.2400476112e-03
 2  3  3    -4.4713663404e-03
 3  1  1     2.9602133956e-02
 3  1  2    -3.1906265169e-02
 3  1  3     7.7446336810e-03
 3  2  1    -3.1906265169e-02
 3  2  2    -7.2400476112e-03
 3  2  3    -4.4713663404e-03
 3  3  1     2.2946023976e-02
 3  3  2    -1.3247893119e-02
 3  3  3    -7.5345136816e-03

    5
0.0000000000e+00 0.0000000000e+00 0.0000000000e+00
-3.9980874304e+00 3.8090000000e-13 2.6930000000e-13
     1      1      1
 1  1  1     9.4297752745e-02
 1  1  2     0.0000000000e+00
 1  1  3     0.0000000000e+00
 1  2  1     0.0000000000e+00
 1  2  2    -3.1028337663e-02
 1  2  3     1.3471117101e-02
 1  3  1     0.0000000000e+00
 1  3  2     1.3471117101e-02
 1  3  3    -4.0553855915e-02
 2  1  1     0.0000000000e+00
 2  1  2    -3.1028337663e-02
 2  1  3     1.3471117101e-02
 2  2  1     3.2366622993e-02
 2  2  2     0.0000000000e+00
 2  2  3     0.0000000000e+00
 2  3  1    -6.7900090119e-03
 2  3  2     0.0000000000e+00
 2  3  3     0.0000000000e+00
 3  1  1     0.0000000000e+00
 3  1  2     1.3471117101e-02
 3  1  3    -4.0553855915e-02
 3  2  1    -6.7900090119e-03
 3  2  2     0.0000000000e+00
 3  2  3     0.0000000000e+00
 3  3  1     3.7167884409e-02
 3  3  2     0.0000000000e+00
 3  3  3     0.0000000000e+00

    6
0.0000000000e+00 0.0000000000e+00 0.0000000000e+00
-3.9980874304e+00 3.8090000000e-13 2.6930000000e-13
     1      1      2
 1  1  1     0.0000000000e+00
 1  1  2    -3.3993536069e-02
 1  1  3    -2.4037059871e-02
 1  2  1    -6.7042991075e-02
 1  2  2     0.0000000000e+00
 1  2  3     0.0000000000e+00
 1  3  1    -4.7406553620e-02
 1  3  2     0.0000000000e+00
 1  3  3     0.0000000000e+00
 2  1  1    -6.7042991075e-02
 2  1  2     0.0000000000e+00
 2  1  3     0.0000000000e+00
 2  2  1     0.0000000000e+00
 2  2  2    -2.0282484999e+00
 2  2  3    -1.3393751610e+00
 2  3  1     0.0000000000e+00
 2  3  2    -1.3627446547e+00
 2  3  3    -9.9712748192e-01
 3  1  1    -4.7406553620e-02
 3  1  2     0.0000000000e+00
 3  1  3     0.0000000000e+00
 3  2  1     0.0000000000e+00
 3  2  2    -1.3627446547e+00
 3  2  3    -9.9712748192e-01
 3  3  1     0.0000000000e+00
 3  3  2    -9.6407802691e-01
 3  3  3    -7.7651921766e-01

    7
0.0000000000e+00 0.0000000000e+00 0.0000000000e+00
1.9990437153e+00 3.4624452813e+00 9.8600000000e-14
     1      1      1
 1  1  1    -6.5344946950e-04
 1  1  2    -5.4874464986e-02
 1  1  3    -1.1666329626e-02
 1  2  1     2.7181412051e-05
 1  2  2    -3.0981258074e-02
 1  2  3    -6.7355585501e-03
 1  3  1    -2.8930046653e-03
 1  3  2     8.4602860333e-03
 1  3  3     2.0276927958e-02
 2  1  1     2.7181412051e-05
 2  1  2    -3.0981258074e-02
 2  1  3    -6.7355585501e-03
 2  2  1    -6.2678738402e-02
 2  2  2    -5.4820102159e-02
 2  2  3     1.1666329625e-02
 2  3  1    -1.1800840078e-02
 2  3  2     2.8930046653e-03
 2  3  3     3.5120669444e-02
 3  1  1    -2.8930046653e-03
 3  1  2     8.4602860333e-03
 3  1  3     2.0276927958e-02
 3  2  1    -1.1800840078e-02
 3  2  2     2.8930046653e-03
 3  2  3     3.5120669444e-02
 3  3  1    -1.8583942205e-02
 3  3  2    -3.2188332103e-02
 3  3  3     0.0000000000e+00

    8
0.0000000000e+00 0.0000000000e+00 0.0000000000e+00
-3.9980874305e+00 -6.9248905627e+00 -1.9720000000e-13
     1      1      2
 1  1  1     1.0521391753e-13
 1  1  2     3.3753857266e-02
 1  1  3    -3.1867079995e-02
 1  2  1     1.6200803708e-02
 1  2  2    -5.1184035081e-13
 1  2  3     6.9791693931e-13
 1  3  1    -2.5661138395e-02
 1  3  2     9.6689065143e-13
 1  3  3     7.0749611382e-14
 2  1  1     1.6200803708e-02
 2  1  2    -4.9878285304e-13
 2  1  3     6.9120339988e-13
 2  2  1    -5.5534251981e-13
 2  2  2    -6.7082245109e-02
 2  2  3     4.1817283140e-02
 2  3  1     7.7953208456e-13
 2  3  2     4.8023224741e-02
 2  3  3     8.9427326816e-03
 3  1  1    -2.5661138395e-02
 3  1  2     9.6449632845e-13
 3  1  3     7.1139417756e-14
 3  2  1     7.8769033067e-13
 3  2  2     4.8023224741e-02
 3  2  3     8.9427326816e-03
 3  3  1     3.4169193828e-13
 3  3  2     2.6495786240e-02
 3  3  3    -7.5345136811e-03

    9
0.0000000000e+00 0.0000000000e+00 0.0000000000e+00
-1.9990437152e+00 3.4624452813e+00 3.6790000000e-13
     1      1      1
 1  1  1     6.5344946759e-04
 1  1  2    -5.4874464985e-02
 1  1  3    -1.1666329627e-02
 1  2  1     2.7181415094e-05
 1  2  2     3.0981258073e-02
 1  2  3     6.7355585512e-03
 1  3  1    -2.8930046652e-03
 1  3  2    -8.4602860338e-03
 1  3  3    -2.0276927957e-02
 2  1  1     2.7181415094e-05
 2  1  2     3.0981258073e-02
 2  1  3     6.7355585512e-03
 2  2  1     6.2678738401e-02
 2  2  2    -5.4820102159e-02
 2  2  3     1.1666329625e-02
 2  3  1     1.1800840078e-02
 2  3  2     2.8930046653e-03
 2  3  3     3.5120669444e-02
 3  1  1    -2.8930046652e-03
 3  1  2    -8.4602860338e-03
 3  1  3    -2.0276927957e-02
 3  2  1     1.1800840078e-02
 3  2  2     2.8930046653e-03
 3  2  3     3.5120669444e-02
 3  3  1     1.8583942204e-02
 3  3  2    -3.2188332103e-02
 3  3  3     0.0000000000e+00

   10
0.0000000000e+00 0.0000000000e+00 0.0000000000e+00
-1.9990437153e+00 -3.4624452813e+00 -9.8600000000e-14
     1      1      1
 1  1  1     6.5344946950e-04
 1  1  2     5.4874464986e-02
 1  1  3     1.1666329626e-02
 1  2  1    -2.7181412051e-05
 1  2  2     3.0981258074e-02
 1  2  3     6.7355585501e-03
 1  3  1     2.8930046653e-03
 1  3  2    -8.4602860333e-03
 1  3  3    -2.0276927958e-02
 2  1  1    -2.7181412051e-05
 2  1  2     3.0981258074e-02
 2  1  3     6.7355585501e-03
 2  2  1     6.2678738402e-02
 2  2  2     5.4820102159e-02
 2  2  3    -1.1666329625e-02
 2  3  1     1.1800840078e-02
 2  3  2    -2.8930046653e-03
 2  3  3    -3.5120669444e-02
 3  1  1     2.8930046653e-03
 3  1  2    -8.4602860333e-03
 3  1  3    -2.0276927958e-02
 3  2  1     1.1800840078e-02
 3  2  2    -2.8930046653e-03
 3  2  3    -3.5120669444e-02
 3  3  1     1.8583942205e-02
 3  3  2     3.2188332103e-02
 3  3  3     0.0000000000e+00

   11
0.0000000000e+00 0.0000000000e+00 0.0000000000e+00
-1.9990437153e+00 -3.4624452813e+00 -9.8600000000e-14
     1      1      2
 1  1  1    -1.3537763277e+00
 1  1  2     7.1456013619e-01
 1  1  3    -1.0105406357e+00
 1  2  1     7.3108486369e-01
 1  2  2    -4.6079933183e-01
 1  2  3     5.6955810509e-01
 1  3  1    -1.0339101294e+00
 1  3  2     5.6955810509e-01
 1  3  3    -8.6353773014e-01
 2  1  1     7.3108486369e-01
 2  1  2    -4.6079933183e-01
 2  1  3     5.6955810509e-01
 2  2  1    -4.3217766421e-01
 2  2  2     3.1656088187e-01
 2  2  3    -3.5287158519e-01
 2  3  1     5.6955810509e-01
 2  3  2    -3.7624107894e-01
 2  3  3     4.9856374099e-01
 3  1  1    -1.0339101294e+00
 3  1  2     5.6955810509e-01
 3  1  3    -8.6353773014e-01
 3  2  1     5.6955810509e-01
 3  2  2    -3.7624107894e-01
 3  2  3     4.9856374099e-01
 3  3  1    -8.3491606253e-01
 3  3  2     4.8203901349e-01
 3  3  3    -7.7651921766e-01

   12
0.0000000000e+00 0.0000000000e+00 0.0000000000e+00
1.9990437152e+00 -3.4624452813e+00 -3.6790000000e-13
     1      1      1
 1  1  1    -6.5344946759e-04
 1  1  2     5.4874464985e-02
 1  1  3     1.1666329627e-02
 1  2  1    -2.7181415094e-05
 1  2  2    -3.0981258073e-02
 1  2  3    -6.7355585512e-03
 1  3  1     2.8930046652e-03
 1  3  2     8.4602860338e-03
 1  3  3     2.0276927957e-02
 2  1  1    -2.7181415094e-05
 2  1  2    -3.0981258073e-02
 2  1  3    -6.7355585512e-03
 2  2  1    -6.2678738401e-02
 2  2  2     5.4820102159e-02
 2  2  3    -1.1666329625e-02
 2  3  1    -1.1800840078e-02
 2  3  2    -2.8930046653e-03
 2  3  3    -3.5120669444e-02
 3  1  1     2.8930046652e-03
 3  1  2     8.4602860338e-03
 3  1  3     2.0276927957e-02
 3  2  1    -1.1800840078e-02
 3  2  2    -2.8930046653e-03
 3  2  3    -3.5120669444e-02
 3  3  1    -1.8583942204e-02
 3  3  2     3.2188332103e-02
 3  3  3     0.0000000000e+00

   13
0.0000000000e+00 0.0000000000e+00 0.0000000000e+00
-5.9971311457e+00 -3.4624452813e+00 1.7070000000e-13
     1      1      2
 1  1  1     1.3537763278e+00
 1  1  2     7.1456013621e-01
 1  1  3    -1.0105406357e+00
 1  2  1     7.3108486371e-01
 1  2  2     4.6079933182e-01
 1  2  3    -5.6955810507e-01
 1  3  1    -1.0339101294e+00
 1  3  2    -5.6955810507e-01
 1  3  3     8.6353773012e-01
 2  1  1     7.3108486371e-01
 2  1  2     4.6079933182e-01
 2  1  3    -5.6955810507e-01
 2  2  1     4.3217766420e-01
 2  2  2     3.1656088185e-01
 2  2  3    -3.5287158516e-01
 2  3  1    -5.6955810507e-01
 2  3  2    -3.7624107891e-01
 2  3  3     4.9856374095e-01
 3  1  1    -1.0339101294e+00
 3  1  2    -5.6955810507e-01
 3  1  3     8.6353773012e-01
 3  2  1    -5.6955810507e-01
 3  2  2    -3.7624107891e-01
 3  2  3     4.9856374095e-01
 3  3  1     8.3491606250e-01
 3  3  2     4.8203901345e-01
 3  3  3    -7.7651921761e-01

   14
0.0000000000e+00 0.0000000000e+00 0.0000000000e+00
1.9990437153e+00 1.1541484271e+00 3.2644247172e+00
     1      1      1
 1  1  1    -6.5344946931e-04
 1  1  2    -2.9290609382e-02
 1  1  3    -4.7847365199e-02
 1  2  1    -2.7184904850e-03
 1  2  2     1.5123603510e-02
 1  2  3    -7.8402441021e-03
 1  3  1     9.8996176986e-04
 1  3  2    -2.3036088685e-02
 1  3  3    -2.5827933626e-02
 2  1  1    -2.7184904850e-03
 2  1  2     1.5123603510e-02
 2  1  3    -7.8402441021e-03
 2  2  1    -3.0900656487e-02
 2  2  2     1.1072837815e-02
 2  2  3    -3.8794231114e-02
 2  3  1    -2.3036088685e-02
 2  3  2     2.7589745779e-02
 2  3  3    -1.4911764431e-02
 3  1  1     9.8996176986e-04
 3  1  2    -2.3036088685e-02
 3  1  3    -2.5827933626e-02
 3  2  1    -2.3036088685e-02
 3  2  2     2.7589745779e-02
 3  2  3    -1.4911764431e-02
 3  3  1    -5.0362024119e-02
 3  3  2    -2.9076528181e-02
 3  3  3    -4.7126883944e-02

   15
0.0000000000e+00 0.0000000000e+00 0.0000000000e+00
-3.9980874305e+00 -2.3082968542e+00 -6.5288494344e+00
     1      1      2
 1  1  1    -3.3990852088e-13
 1  1  2    -1.8793285394e-02
 1  1  3     4.2445801817e-02
 1  2  1    -1.8793285394e-02
 1  2  2     4.1620428791e-13
 1  2  3     7.3126456285e-13
 1  3  1     2.3827977015e-02
 1  3  2     2.9509167824e-13
 1  3  3    -8.1384775593e-13
 2  1  1    -1.8793285394e-02
 2  1  2     4.1884803551e-13
 2  1  3     7.3805526029e-13
 2  2  1     5.2298568244e-13
 2  2  2     1.8793285393e-02
 2  2  3     4.2445801818e-02
 2  3  1     3.0844407045e-13
 2  3  2     2.3827977016e-02
 2  3  3     9.6101013274e-13
 3  1  1     2.3827977015e-02
 3  1  2     2.9847437187e-13
 3  1  3    -8.1776569880e-13
 3  2  1     3.0119555878e-13
 3  2  2     2.3827977016e-02
 3  2  3     9.7377475338e-13
 3  3  1    -6.0446347528e-13
 3  3  2     1.0992601879e-12
 3  3  3    -9.2138672022e-02

   16
0.0000000000e+00 0.0000000000e+00 0.0000000000e+00
-1.9990437152e+00 1.1541484271e+00 3.2644247172e+00
     1      1      1
 1  1  1     6.5344946739e-04
 1  1  2    -2.9290609382e-02
 1  1  3    -4.7847365198e-02
 1  2  1    -2.7184904839e-03
 1  2  2    -1.5123603509e-02
 1  2  3     7.8402441007e-03
 1  3  1     9.8996177271e-04
 1  3  2     2.3036088685e-02
 1  3  3     2.5827933624e-02
 2  1  1    -2.7184904839e-03
 2  1  2    -1.5123603509e-02
 2  1  3     7.8402441007e-03
 2  2  1     3.0900656486e-02
 2  2  2     1.1072837815e-02
 2  2  3    -3.8794231114e-02
 2  3  1     2.3036088685e-02
 2  3  2     2.7589745779e-02
 2  3  3    -1.4911764431e-02
 3  1  1     9.8996177271e-04
 3  1  2     2.3036088685e-02
 3  1  3     2.5827933624e-02
 3  2  1     2.3036088685e-02
 3  2  2     2.7589745779e-02
 3  2  3    -1.4911764431e-02
 3  3  1     5.0362024117e-02
 3  3  2    -2.9076528181e-02
 3  3  3    -4.7126883944e-02

   17
0.0000000000e+00 0.0000000000e+00 0.0000000000e+00
-2.7755575616e-16 -2.3082968543e+00 3.2644247172e+00
     1      1      1
 1  1  1     0.0000000000e+00
 1  1  2     2.4230897640e-02
 1  1  3    -3.4267664071e-02
 1  2  1    -2.8913340156e-02
 1  2  2     5.0321608148e-14
 1  2  3    -4.4061541446e-13
 1  3  1     4.0889637782e-02
 1  3  2     4.0502746469e-13
 1  3  3    -5.0323213322e-14
 2  1  1    -2.8913340156e-02
 2  1  2     5.0319079485e-14
 2  1  3    -4.4061747697e-13
 2  2  1    -3.4831986810e-13
 2  2  2     1.2204645496e-02
 2  2  3    -5.2373932242e-02
 2  3  1     1.2314444862e-13
 2  3  2    -1.2309930234e-02
 2  3  3     2.9823528862e-02
 3  1  1     4.0889637782e-02
 3  1  2     4.0503319492e-13
 3  1  3    -5.0320624499e-14
 3  2  1     1.2315570068e-13
 3  2  2    -1.2309930234e-02
 3  2  3     2.9823528862e-02
 3  3  1     3.4832249319e-13
 3  3  2     5.8153056365e-02
 3  3  3    -4.7126883944e-02

   18
0.0000000000e+00 0.0000000000e+00 0.0000000000e+00
-3.9980874304e+00 -2.3082968543e+00 3.2644247172e+00
     1      1      2
 1  1  1     3.3990852088e-13
 1  1  2     1.8793285394e-02
 1  1  3    -4.2445801817e-02
 1  2  1     1.8793285394e-02
 1  2  2    -4.1620428791e-13
 1  2  3    -7.3126456285e-13
 1  3  1    -2.3827977015e-02
 1  3  2    -2.9509167824e-13
 1  3  3     8.1384775593e-13
 2  1  1     1.8793285394e-02
 2  1  2    -4.1884803551e-13
 2  1  3    -7.3805526029e-13
 2  2  1    -5.2298568244e-13
 2  2  2    -1.8793285393e-02
 2  2  3    -4.2445801818e-02
 2  3  1    -3.0844407045e-13
 2  3  2    -2.3827977016e-02
 2  3  3    -9.6101013274e-13
 3  1  1    -2.3827977015e-02
 3  1  2    -2.9847437187e-13
 3  1  3     8.1776569880e-13
 3  2  1    -3.0119555878e-13
 3  2  2    -2.3827977016e-02
 3  2  3    -9.7377475338e-13
 3  3  1     6.0446347528e-13
 3  3  2    -1.0992601879e-12
 3  3  3     9.2138672022e-02

   19
0.0000000000e+00 0.0000000000e+00 0.0000000000e+00
-1.9990437153e+00 -1.1541484271e+00 -3.2644247172e+00
     1      1      1
 1  1  1     6.5344946931e-04
 1  1  2     2.9290609382e-02
 1  1  3     4.7847365199e-02
 1  2  1     2.7184904850e-03
 1  2  2    -1.5123603510e-02
 1  2  3     7.8402441021e-03
 1  3  1    -9.8996176986e-04
 1  3  2     2.3036088685e-02
 1  3  3     2.5827933626e-02
 2  1  1     2.7184904850e-03
 2  1  2    -1.5123603510e-02
 2  1  3     7.8402441021e-03
 2  2  1     3.0900656487e-02
 2  2  2    -1.1072837815e-02
 2  2  3     3.8794231114e-02
 2  3  1     2.3036088685e-02
 2  3  2    -2.7589745779e-02
 2  3  3     1.4911764431e-02
 3  1  1    -9.8996176986e-04
 3  1  2     2.3036088685e-02
 3  1  3     2.5827933626e-02
 3  2  1     2.3036088685e-02
 3  2  2    -2.7589745779e-02
 3  2  3     1.4911764431e-02
 3  3  1     5.0362024119e-02
 3  3  2     2.9076528181e-02
 3  3  3     4.7126883944e-02

   20
0.0000000000e+00 0.0000000000e+00 0.0000000000e+00
-1.9990437153e+00 -1.1541484271e+00 -3.2644247172e+00
     1      1      2
 1  1  1    -1.3537763278e+00
 1  1  2    -7.1456013621e-01
 1  1  3     1.0105406357e+00
 1  2  1    -7.3108486371e-01
 1  2  2    -4.6079933182e-01
 1  2  3     5.6955810507e-01
 1  3  1     1.0339101294e+00
 1  3  2     5.6955810507e-01
 1  3  3    -8.6353773012e-01
 2  1  1    -7.3108486371e-01
 2  1  2    -4.6079933182e-01
 2  1  3     5.6955810507e-01
 2  2  1    -4.3217766420e-01
 2  2  2    -3.1656088185e-01
 2  2  3     3.5287158516e-01
 2  3  1     5.6955810507e-01
 2  3  2     3.7624107891e-01
 2  3  3    -4.9856374095e-01
 3  1  1     1.0339101294e+00
 3  1  2     5.6955810507e-01
 3  1  3    -8.6353773012e-01
 3  2  1     5.6955810507e-01
 3  2  2     3.7624107891e-01
 3  2  3    -4.9856374095e-01
 3  3  1    -8.3491606250e-01
 3  3  2    -4.8203901345e-01
 3  3  3     7.7651921761e-01

   21
0.0000000000e+00 0.0000000000e+00 0.0000000000e+00
1.9990437152e+00 -1.1541484271e+00 -3.2644247172e+00
     1      1      1
 1  1  1    -6.5344946739e-04
 1  1  2     2.9290609382e-02
 1  1  3     4.7847365198e-02
 1  2  1     2.7184904839e-03
 1  2  2     1.5123603509e-02
 1  2  3    -7.8402441007e-03
 1  3  1    -9.8996177271e-04
 1  3  2    -2.3036088685e-02
 1  3  3    -2.5827933624e-02
 2  1  1     2.7184904839e-03
 2  1  2     1.5123603509e-02
 2  1  3    -7.8402441007e-03
 2  2  1    -3.0900656486e-02
 2  2  2    -1.1072837815e-02
 2  2  3     3.8794231114e-02
 2  3  1    -2.3036088685e-02
 2  3  2    -2.7589745779e-02
 2  3  3     1.4911764431e-02
 3  1  1    -9.8996177271e-04
 3  1  2    -2.3036088685e-02
 3  1  3    -2.5827933624e-02
 3  2  1    -2.3036088685e-02
 3  2  2    -2.7589745779e-02
 3  2  3     1.4911764431e-02
 3  3  1    -5.0362024117e-02
 3  3  2     2.9076528181e-02
 3  3  3     4.7126883944e-02

   22
0.0000000000e+00 0.0000000000e+00 0.0000000000e+00
-5.9971311457e+00 -1.1541484271e+00 -3.2644247172e+00
     1      1      2
 1  1  1     1.3537763277e+00
 1  1  2    -7.1456013619e-01
 1  1  3     1.0105406357e+00
 1  2  1    -7.3108486369e-01
 1  2  2     4.6079933183e-01
 1  2  3    -5.6955810509e-01
 1  3  1     1.0339101294e+00
 1  3  2    -5.6955810509e-01
 1  3  3     8.6353773014e-01
 2  1  1    -7.3108486369e-01
 2  1  2     4.6079933183e-01
 2  1  3    -5.6955810509e-01
 2  2  1     4.3217766421e-01
 2  2  2    -3.1656088187e-01
 2  2  3     3.5287158519e-01
 2  3  1    -5.6955810509e-01
 2  3  2     3.7624107894e-01
 2  3  3    -4.9856374099e-01
 3  1  1     1.0339101294e+00
 3  1  2    -5.6955810509e-01
 3  1  3     8.6353773014e-01
 3  2  1    -5.6955810509e-01
 3  2  2     3.7624107894e-01
 3  2  3    -4.9856374099e-01
 3  3  1     8.3491606253e-01
 3  3  2    -4.8203901349e-01
 3  3  3     7.7651921766e-01

   23
0.0000000000e+00 0.0000000000e+00 0.0000000000e+00
-2.7755575616e-16 2.3082968543e+00 -3.2644247172e+00
     1      1      1
 1  1  1     0.0000000000e+00
 1  1  2    -2.4230897640e-02
 1  1  3     3.4267664071e-02
 1  2  1     2.8913340156e-02
 1  2  2    -5.0321608148e-14
 1  2  3     4.4061541446e-13
 1  3  1    -4.0889637782e-02
 1  3  2    -4.0502746469e-13
 1  3  3     5.0323213322e-14
 2  1  1     2.8913340156e-02
 2  1  2    -5.0319079485e-14
 2  1  3     4.4061747697e-13
 2  2  1     3.4831986810e-13
 2  2  2    -1.2204645496e-02
 2  2  3     5.2373932242e-02
 2  3  1    -1.2314444862e-13
 2  3  2     1.2309930234e-02
 2  3  3    -2.9823528862e-02
 3  1  1    -4.0889637782e-02
 3  1  2    -4.0503319492e-13
 3  1  3     5.0320624499e-14
 3  2  1    -1.2315570068e-13
 3  2  2     1.2309930234e-02
 3  2  3    -2.9823528862e-02
 3  3  1    -3.4832249319e-13
 3  3  2    -5.8153056365e-02
 3  3  3     4.7126883944e-02

   24
0.0000000000e+00 0.0000000000e+00 0.0000000000e+00
-3.9980874304e+00 2.3082968543e+00 -3.2644247172e+00
     1      1      2
 1  1  1    -1.0521391753e-13
 1  1  2    -3.3753857266e-02
 1  1  3     3.1867079995e-02
 1  2  1    -1.6200803708e-02
 1  2  2     5.1184035081e-13
 1  2  3    -6.9791693931e-13
 1  3  1     2.5661138395e-02
 1  3  2    -9.6689065143e-13
 1  3  3    -7.0749611382e-14
 2  1  1    -1.6200803708e-02
 2  1  2     4.9878285304e-13
 2  1  3    -6.9120339988e-13
 2  2  1     5.5534251981e-13
 2  2  2     6.7082245109e-02
 2  2  3    -4.1817283140e-02
 2  3  1    -7.7953208456e-13
 2  3  2    -4.8023224741e-02
 2  3  3    -8.9427326816e-03
 3  1  1     2.5661138395e-02
 3  1  2    -9.6449632845e-13
 3  1  3    -7.1139417756e-14
 3  2  1    -7.8769033067e-13
 3  2  2    -4.8023224741e-02
 3  2  3    -8.9427326816e-03
 3  3  1    -3.4169193828e-13
 3  3  2    -2.6495786240e-02
 3  3  3     7.5345136811e-03

   25
0.0000000000e+00 0.0000000000e+00 0.0000000000e+00
-3.9980874305e+00 -4.6165937084e+00 -3.2644247172e+00
     1      1      2
 1  1  1     0.0000000000e+00
 1  1  2     3.3993536069e-02
 1  1  3     2.4037059871e-02
 1  2  1     6.7042991075e-02
 1  2  2     0.0000000000e+00
 1  2  3     0.0000000000e+00
 1  3  1     4.7406553620e-02
 1  3  2     0.0000000000e+00
 1  3  3     0.0000000000e+00
 2  1  1     6.7042991075e-02
 2  1  2     0.0000000000e+00
 2  1  3     0.0000000000e+00
 2  2  1     0.0000000000e+00
 2  2  2     2.0282484999e+00
 2  2  3     1.3393751610e+00
 2  3  1     0.0000000000e+00
 2  3  2     1.3627446547e+00
 2  3  3     9.9712748192e-01
 3  1  1     4.7406553620e-02
 3  1  2     0.0000000000e+00
 3  1  3     0.0000000000e+00
 3  2  1     0.0000000000e+00
 3  2  2     1.3627446547e+00
 3  2  3     9.9712748192e-01
 3  3  1     0.0000000000e+00
 3  3  2     9.6407802691e-01
 3  3  3     7.7651921766e-01

   26
0.0000000000e+00 0.0000000000e+00 0.0000000000e+00
-9.8679953098e-11 -4.6165937084e+00 -3.2644247172e+00
     1      1      2
 1  1  1     2.9248118048e-02
 1  1  2    -3.3087212536e-02
 1  1  3    -2.3396192355e-02
 1  2  1    -4.1863739316e-02
 1  2  2     1.4816502781e-02
 1  2  3     3.1906265169e-02
 1  3  1    -2.9602133956e-02
 1  3  2     3.1906265169e-02
 1  3  3    -7.7446336810e-03
 2  1  1    -4.1863739316e-02
 2  1  2     1.4816502781e-02
 2  1  3     3.1906265169e-02
 2  2  1    -3.8488751385e-04
 2  2  2     1.6423018617e-02
 2  2  3     1.3445989212e-02
 2  3  1     3.1906265169e-02
 2  3  2     7.2400476112e-03
 2  3  3     4.4713663404e-03
 3  1  1    -2.9602133956e-02
 3  1  2     3.1906265169e-02
 3  1  3    -7.7446336810e-03
 3  2  1     3.1906265169e-02
 3  2  2     7.2400476112e-03
 3  2  3     4.4713663404e-03
 3  3  1    -2.2946023976e-02
 3  3  2     1.3247893119e-02
 3  3  3     7.5345136816e-03

   27
0.0000000000e+00 0.0000000000e+00 0.0000000000e+00
-7.9961748610e+00 -4.6165937084e+00 -3.2644247172e+00
     1      1      2
 1  1  1    -2.9248118052e-02
 1  1  2    -3.3087212539e-02
 1  1  3    -2.3396192357e-02
 1  2  1    -4.1863739317e-02
 1  2  2    -1.4816502781e-02
 1  2  3    -3.1906265169e-02
 1  3  1    -2.9602133957e-02
 1  3  2    -3.1906265169e-02
 1  3  3     7.7446336812e-03
 2  1  1    -4.1863739317e-02
 2  1  2    -1.4816502781e-02
 2  1  3    -3.1906265169e-02
 2  2  1     3.8488751418e-04
 2  2  2     1.6423018618e-02
 2  2  3     1.3445989212e-02
 2  3  1    -3.1906265169e-02
 2  3  2     7.2400476111e-03
 2  3  3     4.4713663406e-03
 3  1  1    -2.9602133957e-02
 3  1  2    -3.1906265169e-02
 3  1  3     7.7446336812e-03
 3  2  1    -3.1906265169e-02
 3  2  2     7.2400476111e-03
 3  2  3     4.4713663406e-03
 3  3  1     2.2946023976e-02
 3  3  2     1.3247893120e-02
 3  3  3     7.5345136816e-03

   28
0.0000000000e+00 0.0000000000e+00 0.0000000000e+00
0.0000000000e+00 0.0000000000e+00 0.0000000000e+00
     1      2      1
 1  1  1     2.9248118052e-02
 1  1  2     4.1863739317e-02
 1  1  3     2.9602133957e-02
 1  2  1     3.3087212539e-02
 1  2  2     1.4816502781e-02
 1  2  3     3.1906265169e-02
 1  3  1     2.3396192357e-02
 1  3  2     3.1906265169e-02
 1  3  3    -7.7446336812e-03
 2  1  1     4.1863739317e-02
 2  1  2    -3.8488751418e-04
 2  1  3     3.1906265169e-02
 2  2  1     1.4816502781e-02
 2  2  2    -1.6423018618e-02
 2  2  3    -7.2400476111e-03
 2  3  1     3.1906265169e-02
 2  3  2    -1.3445989212e-02
 2  3  3    -4.4713663406e-03
 3  1  1     2.9602133957e-02
 3  1  2     3.1906265169e-02
 3  1  3    -2.2946023976e-02
 3  2  1     3.1906265169e-02
 3  2  2    -7.2400476111e-03
 3  2  3    -1.3247893120e-02
 3  3  1    -7.7446336812e-03
 3  3  2    -4.4713663406e-03
 3  3  3    -7.5345136816e-03

   29
0.0000000000e+00 0.0000000000e+00 0.0000000000e+00
0.0000000000e+00 0.0000000000e+00 0.0000000000e+00
     1      2      2
 1  1  1     1.2995675796e-02
 1  1  2    -6.1042730997e-02
 1  1  3    -4.3163729030e-02
 1  2  1    -6.1042730997e-02
 1  2  2     3.2056152589e-02
 1  2  3    -1.4895004820e-02
 1  3  1    -4.3163729030e-02
 1  3  2    -1.4895004820e-02
 1  3  3     4.2588511503e-02
 2  1  1    -3.7032816970e-02
 2  1  2    -9.5302383953e-03
 2  1  3    -1.4895004820e-02
 2  2  1    -9.5302383953e-03
 2  2  2     6.3043502217e-02
 2  2  3    -2.5964458946e-02
 2  3  1    -1.4895004820e-02
 2  3  2    -2.5964458946e-02
 2  3  3     2.4588488579e-02
 3  1  1    -2.6186156006e-02
 3  1  2    -1.4895004820e-02
 3  1  3     1.0021205188e-03
 3  2  1    -1.4895004820e-02
 3  2  2    -8.9868859204e-03
 3  2  3     5.7857455126e-04
 3  3  1     1.0021205188e-03
 3  3  2     5.7857455126e-04
 3  3  3     7.0952060860e-02

   30
0.0000000000e+00 0.0000000000e+00 0.0000000000e+00
3.9980874304e+00 -3.8090000000e-13 -2.6930000000e-13
     1      2      1
 1  1  1     4.7690917061e-03
 1  1  2    -1.3297497187e-02
 1  1  3    -9.4027504340e-03
 1  2  1     1.0868086932e-02
 1  2  2    -1.7651149191e-02
 1  2  3    -3.1622045825e-03
 1  3  1     7.6848979679e-03
 1  3  2    -3.1622045825e-03
 1  3  3    -1.5415132887e-02
 2  1  1    -7.0039055110e-03
 2  1  2    -8.2824492503e-03
 2  1  3    -9.2823632960e-03
 2  2  1     5.9892938092e-03
 2  2  2     8.8025536882e-04
 2  2  3     4.7100585214e-03
 2  3  1     3.7104201416e-03
 2  3  2     2.6835385117e-03
 2  3  3     1.8697228825e-04
 3  1  1    -4.9525090817e-03
 3  1  2    -9.2823632960e-03
 3  1  3    -1.7188272183e-03
 3  2  1     3.7104201416e-03
 3  2  2     2.4333333280e-03
 3  2  3     5.4081585232e-04
 3  3  1     3.3656305660e-03
 3  3  2     3.4067479345e-03
 3  3  3    -1.6786894146e-03

   31
0.0000000000e+00 0.0000000000e+00 0.0000000000e+00
-3.9980874304e+00 3.8090000000e-13 2.6930000000e-13
     1      2      2
 1  1  1    -5.0935741143e-03
 1  1  2     1.8222777408e-02
 1  1  3     1.2885449477e-02
 1  2  1     7.3212978891e-03
 1  2  2     7.0042141749e-04
 1  2  3    -3.5390901759e-03
 1  3  1     5.1769393845e-03
 1  3  2    -3.5390901759e-03
 1  3  3     3.2029360800e-03
 2  1  1     1.7992244627e-03
 2  1  2    -3.8243566197e-04
 2  1  3    -7.8766486844e-03
 2  2  1    -1.3064498844e-02
 2  2  2    -2.0183251947e-02
 2  2  3     4.7328965717e-03
 2  3  1    -9.5379677804e-03
 2  3  2     5.8458738554e-03
 2  3  3    -1.3198698123e-02
 3  1  1     1.2722438184e-03
 3  1  2    -7.8766486844e-03
 3  1  3     5.1871960356e-03
 3  2  1    -9.5379677804e-03
 3  2  2    -4.1603570127e-03
 3  2  3     9.5224927869e-04
 3  3  1    -6.3201371477e-03
 3  3  2    -6.2173829038e-04
 3  3  3    -1.9444246251e-02

   32
0.0000000000e+00 0.0000000000e+00 0.0000000000e+00
1.9990437153e+00 3.4624452813e+00 9.8600000000e-14
     1      2      1
 1  1  1    -8.3536079142e-03
 1  1  2     1.3318647268e-02
 1  1  3    -4.2067996788e-03
 1  2  1    -1.1123836838e-02
 1  2  2    -3.3906574150e-03
 1  2  3    -1.2282246863e-02
 1  3  1     4.1712626761e-03
 1  3  2     5.7390184234e-03
 1  3  3    -7.5456436922e-03
 2  1  1    -1.0301372764e-02
 2  1  2     1.6771292027e-02
 2  1  3    -6.1620881501e-03
 2  2  1     2.9791538127e-03
 2  2  2     2.2070088011e-03
 2  2  3    -4.8589223367e-04
 2  3  1    -1.1336063012e-03
 2  3  2     6.1971738038e-03
 2  3  3    -1.3443382827e-02
 3  1  1    -1.8258494346e-03
 3  1  2     1.9052423526e-03
 3  1  3    -3.9105334233e-04
 3  2  1    -1.1087541085e-02