nqpoint: 404    
npath: 4      
segment_nqpoint:
- 101
- 101
- 101
- 101
labels:
- [ '$\Gamma$', 'X' ]
- [ 'X', 'K' ]
- [ 'K', '$\Gamma$' ]
- [ '$\Gamma$', 'L' ]
reciprocal_lattice:
- [  -0.17686126,   0.17686126,   0.17686126 ] # a*
- [   0.17686126,  -0.17686126,   0.17686126 ] # b*
- [   0.17686126,   0.17686126,  -0.17686126 ] # c*
natom: 2      
lattice:
- [     0.000000000000000,     2.827074733835000,     2.827074733835000 ] # a
- [     2.827074733835000,     0.000000000000000,     2.827074733835000 ] # b
- [     2.827074733835000,     2.827074733835000,     0.000000000000000 ] # c
points:
- symbol: Na # 1
  coordinates: [  0.000000000000000,  0.000000000000000,  0.000000000000000 ]
  mass: 22.989769
- symbol: Cl # 2
  coordinates: [  0.500000000000000,  0.500000000000000,  0.500000000000000 ]
  mass: 35.453000

phonon:
- q-position: [    0.0001000,    0.0001000,    1.0000000 ]
  distance:    0.0000000
  band:
  - # 1
    frequency:   -0.0066418401
    eigenvector:
    - # atom 1
      - [ -0.38226519787566,  0.00000000000000 ]
      - [ -0.38226519829761, -0.00000000000001 ]
      - [  0.31799230254420,  0.00000000000001 ]
    - # atom 2
      - [  0.47470503166213,  0.00000000000000 ]
      - [  0.47470503218612,  0.00000000000001 ]
      - [ -0.39488960168386, -0.00000000000001 ]
  - # 2
    frequency:   -0.0028524456
    eigenvector:
    - # atom 1
      - [  0.44349316863177, -0.00000000000000 ]
      - [ -0.44349316899037,  0.00000000000001 ]
      - [ -0.00000000101956,  0.00000000000002 ]
    - # atom 2
      - [ -0.55073932942242, -0.00000000000000 ]
      - [  0.55073932986774, -0.00000000000001 ]
      - [  0.00000000126612, -0.00000000000003 ]
  - # 3
    frequency:   -0.0017332598
    eigenvector:
    - # atom 1
      - [ -0.22485448966401,  0.00000000000000 ]
      - [ -0.22485448823937,  0.00000000000003 ]
      - [ -0.54060456202858,  0.00000000000003 ]
    - # atom 2
      - [  0.27922913581854,  0.00000000000000 ]
      - [  0.27922913404940, -0.00000000000004 ]
      - [  0.67133434704213, -0.00000000000003 ]
  - # 4
    frequency:    9.1889728141
    eigenvector:
    - # atom 1
      - [  0.55073928238924,  0.00000000000000 ]
      - [  0.55073931863768,  0.00000000000003 ]
      - [ -0.00000002291603,  0.00000000000000 ]
    - # atom 2
      - [  0.44349319039247,  0.00000000000000 ]
      - [  0.44349321958220,  0.00000000000002 ]
      - [ -0.00000007808151, -0.00000000000000 ]
  - # 5
    frequency:    9.1889729623
    eigenvector:
    - # atom 1
      - [  0.55073934776930,  0.00000000000000 ]
      - [ -0.55073931152086, -0.00000000000003 ]
      - [ -0.00000000000000,  0.00000000000000 ]
    - # atom 2
      - [  0.44349318340594,  0.00000000000000 ]
      - [ -0.44349315421621, -0.00000000000002 ]
      - [ -0.00000000000000, -0.00000000000000 ]
  - # 6
    frequency:   10.6421066441
    eigenvector:
    - # atom 1
      - [ -0.00000005215674, -0.00000000000000 ]
      - [ -0.00000005215674,  0.00000000000000 ]
      - [ -0.77886301943058,  0.00000000000678 ]
    - # atom 2
      - [ -0.00000001056519,  0.00000000000000 ]
      - [ -0.00000001056519,  0.00000000000000 ]
      - [ -0.62719406642879,  0.00000000000546 ]

- q-position: [    0.0050990,    0.0050990,    1.0000000 ]
  distance:    0.0017683
  band:
  - # 1
    frequency:    0.0893204649
    eigenvector:
    - # atom 1
      - [  0.44350306249088,  0.00000000000000 ]
      - [  0.44350306379453,  0.00000000000049 ]
      - [ -0.00057989345814, -0.00000000000000 ]
    - # atom 2
      - [ -0.55073097308784, -0.00000000000000 ]
      - [ -0.55073097470667, -0.00000000000061 ]
      - [  0.00072004861747,  0.00000000000000 ]
  - # 2
    frequency:    0.0894594890
    eigenvector:
    - # atom 1
      - [  0.44350321795203,  0.00000000000000 ]
      - [ -0.44350321664838, -0.00000000000049 ]
      - [ -0.00000000000072,  0.00000000000000 ]
    - # atom 2
      - [ -0.55073123856915, -0.00000000000000 ]
      - [  0.55073123695031,  0.00000000000061 ]
      - [  0.00000000000090, -0.00000000000000 ]
  - # 3
    frequency:    0.1638945792
    eigenvector:
    - # atom 1
      - [ -0.00041000497504,  0.00000000000000 ]
      - [ -0.00041000497522, -0.00000000000000 ]
      - [ -0.62720533585177, -0.00000000000053 ]
    - # atom 2
      - [  0.00050918477772, -0.00000000000000 ]
      - [  0.00050918477794,  0.00000000000000 ]
      - [  0.77885339566098,  0.00000000000066 ]
  - # 4
    frequency:    9.1891877701
    eigenvector:
    - # atom 1
      - [  0.55073120282251,  0.00000000000000 ]
      - [  0.55073121574465,  0.00000000000149 ]
      - [ -0.00000002193790,  0.00000000000000 ]
    - # atom 2
      - [  0.44350324745809,  0.00000000000000 ]
      - [  0.44350325786427,  0.00000000000120 ]
      - [ -0.00000007562191, -0.00000000000000 ]
  - # 5
    frequency:    9.1891879169
    eigenvector:
    - # atom 1
      - [ -0.55073124422080,  0.00000000000000 ]
      - [  0.55073123129866,  0.00000000000149 ]
      - [  0.00000000000000, -0.00000000000000 ]
    - # atom 2
      - [ -0.44350322250330, -0.00000000000000 ]
      - [  0.44350321209712,  0.00000000000120 ]
      - [  0.00000000000000, -0.00000000000000 ]
  - # 6
    frequency:   10.6410302851
    eigenvector:
    - # atom 1
      - [  0.00000005045715,  0.00000000000000 ]
      - [  0.00000005045715, -0.00000000000000 ]
      - [  0.77885372850276, -0.00000000001522 ]
    - # atom 2
      - [  0.00000001007912, -0.00000000000000 ]
      - [  0.00000001007912, -0.00000000000000 ]
      - [  0.62720560392693, -0.00000000001226 ]

- q-position: [    0.0100980,    0.0100980,    1.0000000 ]
  distance:    0.0035365
  band:
  - # 1
    frequency:    0.1771523539
    eigenvector:
    - # atom 1
      - [  0.44353260371308,  0.00000000000000 ]
      - [  0.44353260508808,  0.00000000000099 ]
      - [ -0.00014381715183, -0.00000000000000 ]
    - # atom 2
      - [ -0.55070754635899, -0.00000000000000 ]
      - [ -0.55070754806624, -0.00000000000123 ]
      - [  0.00017852177088,  0.00000000000000 ]
  - # 2
    frequency:    0.1772208883
    eigenvector:
    - # atom 1
      - [ -0.44353258217220, -0.00000000000000 ]
      - [  0.44353258079720,  0.00000000000099 ]
      - [  0.00000000000013, -0.00000000000000 ]
    - # atom 2
      - [  0.55070759037961,  0.00000000000000 ]
      - [ -0.55070758867236, -0.00000000000123 ]
      - [ -0.00000000000016,  0.00000000000000 ]
  - # 3
    frequency:    0.3246585217
    eigenvector:
    - # atom 1
      - [ -0.00010165358028,  0.00000000000000 ]
      - [ -0.00010165358041, -0.00000000000000 ]
      - [ -0.62723935496068, -0.00000000000033 ]
    - # atom 2
      - [  0.00012626657487, -0.00000000000000 ]
      - [  0.00012626657503,  0.00000000000000 ]
      - [  0.77882651408071,  0.00000000000042 ]
  - # 4
    frequency:    9.1898161969
    eigenvector:
    - # atom 1
      - [  0.55070755163386,  0.00000000000000 ]
      - [  0.55070757174185,  0.00000000000307 ]
      - [ -0.00000002106144,  0.00000000000000 ]
    - # atom 2
      - [  0.44353260795226,  0.00000000000000 ]
      - [  0.44353262414697,  0.00000000000248 ]
      - [ -0.00000007332626, -0.00000000000000 ]
  - # 5
    frequency:    9.1898163422
    eigenvector:
    - # atom 1
      - [ -0.55070759957997,  0.00000000000000 ]
      - [  0.55070757947199,  0.00000000000307 ]
      - [  0.00000000000000, -0.00000000000000 ]
    - # atom 2
      - [ -0.44353258958205, -0.00000000000000 ]
      - [  0.44353257338735,  0.00000000000248 ]
      - [  0.00000000000000, -0.00000000000000 ]
  - # 6
    frequency:   10.6378860890
    eigenvector:
    - # atom 1
      - [  0.00000004887922,  0.00000000000000 ]
      - [  0.00000004887922, -0.00000000000000 ]
      - [  0.77882653454100, -0.00000000002495 ]
    - # atom 2
      - [  0.00000000964981, -0.00000000000000 ]
      - [  0.00000000964981, -0.00000000000000 ]
      - [  0.62723937144830, -0.00000000002009 ]

- q-position: [    0.0150970,    0.0150970,    1.0000000 ]
  distance:    0.0053048
  band:
  - # 1
    frequency:    0.2648471634
    eigenvector:
    - # atom 1
      - [  0.44358126739981,  0.00000000000000 ]
      - [  0.44358126805569,  0.00000000000151 ]
      - [ -0.00006258017079, -0.00000000000000 ]
    - # atom 2
      - [ -0.55066836980201, -0.00000000000000 ]
      - [ -0.55066837061623, -0.00000000000188 ]
      - [  0.00007764190582,  0.00000000000000 ]
  - # 2
    frequency:    0.2648919857
    eigenvector:
    - # atom 1
      - [ -0.44358123647131, -0.00000000000000 ]
      - [  0.44358123581543,  0.00000000000151 ]
      - [  0.00000000000004, -0.00000000000000 ]
    - # atom 2
      - [  0.55066840057324,  0.00000000000000 ]
      - [ -0.55066839975902, -0.00000000000188 ]
      - [ -0.00000000000005,  0.00000000000000 ]
  - # 3
    frequency:    0.4853573077
    eigenvector:
    - # atom 1
      - [ -0.00004421143372,  0.00000000000000 ]
      - [ -0.00004421143372,  0.00000000000000 ]
      - [ -0.62729548309978,  0.00000000000191 ]
    - # atom 2
      - [  0.00005493287896, -0.00000000000000 ]
      - [  0.00005493287896, -0.00000000000000 ]
      - [  0.77878133448233, -0.00000000000237 ]
  - # 4
    frequency:    9.1908583993
    eigenvector:
    - # atom 1
      - [  0.55066835763945,  0.00000000000000 ]
      - [  0.55066838825871,  0.00000000000462 ]
      - [ -0.00000002027867,  0.00000000000000 ]
    - # atom 2
      - [  0.44358125759861,  0.00000000000000 ]
      - [  0.44358128226341,  0.00000000000373 ]
      - [ -0.00000007118377, -0.00000000000000 ]
  - # 5
    frequency:    9.1908585430
    eigenvector:
    - # atom 1
      - [ -0.55066841547576,  0.00000000000000 ]
      - [  0.55066838485650,  0.00000000000462 ]
      - [  0.00000000000000, -0.00000000000000 ]
    - # atom 2
      - [ -0.44358124847577, -0.00000000000000 ]
      - [  0.44358122381096,  0.00000000000373 ]
      - [  0.00000000000000, -0.00000000000000 ]
  - # 6
    frequency:   10.6326801685
    eigenvector:
    - # atom 1
      - [  0.00000004741464,  0.00000000000000 ]
      - [  0.00000004741464, -0.00000000000000 ]
      - [  0.77878133835265, -0.00000000003223 ]
    - # atom 2
      - [  0.00000000927273, -0.00000000000000 ]
      - [  0.00000000927273, -0.00000000000000 ]
      - [  0.62729548622133, -0.00000000002596 ]

- q-position: [    0.0200960,    0.0200960,    1.0000000 ]
  distance:    0.0070730
  band:
  - # 1
    frequency:    0.3524208075
    eigenvector:
    - # atom 1
      - [  0.44364917105384,  0.00000000000000 ]
      - [  0.44364917228747,  0.00000000000209 ]
      - [ -0.00003436055768, -0.00000000000000 ]
    - # atom 2
      - [ -0.55061366686199, -0.00000000000000 ]
      - [ -0.55061366839306, -0.00000000000259 ]
      - [  0.00004260004672,  0.00000000000000 ]
  - # 2
    frequency:    0.3524537463
    eigenvector:
    - # atom 1
      - [ -0.44364913992198, -0.00000000000000 ]
      - [  0.44364913868834,  0.00000000000209 ]
      - [  0.00000000000007, -0.00000000000000 ]
    - # atom 2
      - [  0.55061369583113,  0.00000000000000 ]
      - [ -0.55061369430007, -0.00000000000259 ]
      - [ -0.00000000000009,  0.00000000000000 ]
  - # 3
    frequency:    0.6459882587
    eigenvector:
    - # atom 1
      - [ -0.00002425817350,  0.00000000000000 ]
      - [ -0.00002425817347, -0.00000000000000 ]
      - [ -0.62737414271024, -0.00000000000215 ]
    - # atom 2
      - [  0.00003015372874, -0.00000000000000 ]
      - [  0.00003015372870,  0.00000000000000 ]
      - [  0.77871797337879,  0.00000000000267 ]
  - # 4
    frequency:    9.1923148753
    eigenvector:
    - # atom 1
      - [  0.55061365798150,  0.00000000000000 ]
      - [  0.55061367892488,  0.00000000000585 ]
      - [ -0.00000001958266,  0.00000000000000 ]
    - # atom 2
      - [  0.44364916389644,  0.00000000000000 ]
      - [  0.44364918077128,  0.00000000000471 ]
      - [ -0.00000006918480, -0.00000000000000 ]
  - # 5
    frequency:    9.1923150175
    eigenvector:
    - # atom 1
      - [ -0.55061370553729,  0.00000000000000 ]
      - [  0.55061368459391,  0.00000000000585 ]
      - [  0.00000000000000,  0.00000000000000 ]
    - # atom 2
      - [ -0.44364914774258, -0.00000000000000 ]
      - [  0.44364913086774,  0.00000000000471 ]
      - [  0.00000000000000, -0.00000000000000 ]
  - # 6
    frequency:   10.6254226458
    eigenvector:
    - # atom 1
      - [  0.00000004605601,  0.00000000000000 ]
      - [  0.00000004605601, -0.00000000000000 ]
      - [  0.77871797454402, -0.00000000002150 ]
    - # atom 2
      - [  0.00000000894399, -0.00000000000000 ]
      - [  0.00000000894399, -0.00000000000000 ]
      - [  0.62737414365119, -0.00000000001732 ]

- q-position: [    0.0250950,    0.0250950,    1.0000000 ]
  distance:    0.0088413
  band:
  - # 1
    frequency:    0.4398492588
    eigenvector:
    - # atom 1
      - [  0.44373626319522,  0.00000000000000 ]
      - [  0.44373626490152,  0.00000000000266 ]
      - [ -0.00002144419496, -0.00000000000000 ]
    - # atom 2
      - [ -0.55054348258806, -0.00000000000000 ]
      - [ -0.55054348470507, -0.00000000000330 ]
      - [  0.00002656199868,  0.00000000000000 ]
  - # 2
    frequency:    0.4398750692
    eigenvector:
    - # atom 1
      - [ -0.44373623287169,  0.00000000000000 ]
      - [  0.44373623116539,  0.00000000000266 ]
      - [  0.00000000000004, -0.00000000000000 ]
    - # atom 2
      - [  0.55054351105021,  0.00000000000000 ]
      - [ -0.55054350893320, -0.00000000000330 ]
      - [ -0.00000000000005,  0.00000000000000 ]
  - # 3
    frequency:    0.8065343917
    eigenvector:
    - # atom 1
      - [ -0.00001512589288, -0.00000000000000 ]
      - [ -0.00001512589289, -0.00000000000000 ]
      - [ -0.62747561852862, -0.00000000000212 ]
    - # atom 2
      - [  0.00001881234606, -0.00000000000000 ]
      - [  0.00001881234606,  0.00000000000000 ]
      - [  0.77863620965553,  0.00000000000263 ]
  - # 4
    frequency:    9.1941863057
    eigenvector:
    - # atom 1
      - [  0.55054347174952,  0.00000000000000 ]
      - [  0.55054349618643,  0.00000000000736 ]
      - [ -0.00000001896746,  0.00000000000000 ]
    - # atom 2
      - [  0.44373625445814,  0.00000000000000 ]
      - [  0.44373627415421,  0.00000000000593 ]
      - [ -0.00000006732080, -0.00000000000000 ]
  - # 5
    frequency:    9.1941864465
    eigenvector:
    - # atom 1
      - [ -0.55054352221016,  0.00000000000000 ]
      - [  0.55054349777325,  0.00000000000736 ]
      - [  0.00000000000000, -0.00000000000000 ]
    - # atom 2
      - [ -0.44373624186658, -0.00000000000000 ]
      - [  0.44373622217050,  0.00000000000593 ]
      - [  0.00000000000000, -0.00000000000000 ]
  - # 6
    frequency:   10.6161276361
    eigenvector:
    - # atom 1
      - [  0.00000004479675,  0.00000000000000 ]
      - [  0.00000004479675, -0.00000000000000 ]
      - [  0.77863621010860, -0.00000000001926 ]
    - # atom 2
      - [  0.00000000866031, -0.00000000000000 ]
      - [  0.00000000866031, -0.00000000000000 ]
      - [  0.62747561889504, -0.00000000001552 ]

- q-position: [    0.0300940,    0.0300940,    1.0000000 ]
  distance:    0.0106096
  band:
  - # 1
    frequency:    0.5271019362
    eigenvector:
    - # atom 1
      - [  0.44384246937878,  0.00000000000000 ]
      - [  0.44384246958233,  0.00000000000326 ]
      - [ -0.00001451698949, -0.00000000000000 ]
    - # atom 2
      - [ -0.55045786567163, -0.00000000000000 ]
      - [ -0.55045786592407, -0.00000000000405 ]
      - [  0.00001796132607,  0.00000000000000 ]
  - # 2
    frequency:    0.5271230025
    eigenvector:
    - # atom 1
      - [ -0.44384243813618,  0.00000000000000 ]
      - [  0.44384243793264,  0.00000000000326 ]
      - [  0.00000000000001, -0.00000000000000 ]
    - # atom 2
      - [  0.55045789152180,  0.00000000000000 ]
      - [ -0.55045789126936, -0.00000000000405 ]
      - [ -0.00000000000001,  0.00000000000000 ]
  - # 3
    frequency:    0.9669761822
    eigenvector:
    - # atom 1
      - [ -0.00001022853600, -0.00000000000000 ]
      - [ -0.00001022853600,  0.00000000000000 ]
      - [ -0.62760026893080,  0.00000000000119 ]
    - # atom 2
      - [  0.00001273002381, -0.00000000000000 ]
      - [  0.00001273002381, -0.00000000000000 ]
      - [  0.77853574221396, -0.00000000000147 ]
  - # 4
    frequency:    9.1964735397
    eigenvector:
    - # atom 1
      - [  0.55045785849218,  0.00000000000000 ]
      - [  0.55045787339792,  0.00000000000869 ]
      - [ -0.00000001842798,  0.00000000000000 ]
    - # atom 2
      - [  0.44384246358906,  0.00000000000000 ]
      - [  0.44384247560777,  0.00000000000701 ]
      - [ -0.00000006558417, -0.00000000000000 ]
  - # 5
    frequency:    9.1964736791
    eigenvector:
    - # atom 1
      - [ -0.55045789884845,  0.00000000000000 ]
      - [  0.55045788394271,  0.00000000000869 ]
      - [  0.00000000000000, -0.00000000000000 ]
    - # atom 2
      - [ -0.44384244404377, -0.00000000000000 ]
      - [  0.44384243202505,  0.00000000000701 ]
      - [  0.00000000000000, -0.00000000000000 ]
  - # 6
    frequency:   10.6048132231
    eigenvector:
    - # atom 1
      - [  0.00000004363107,  0.00000000000000 ]
      - [  0.00000004363107, -0.00000000000000 ]
      - [  0.77853574242115, -0.00000000004303 ]
    - # atom 2
      - [  0.00000000841892, -0.00000000000000 ]
      - [  0.00000000841892, -0.00000000000000 ]
      - [  0.62760026909869, -0.00000000003469 ]

- q-position: [    0.0350930,    0.0350930,    1.0000000 ]
  distance:    0.0123778
  band:
  - # 1
    frequency:    0.6141465849
    eigenvector:
    - # atom 1
      - [  0.44396769380619,  0.00000000000000 ]
      - [  0.44396769460326,  0.00000000000374 ]
      - [ -0.00001039672210, -0.00000000000000 ]
    - # atom 2
      - [ -0.55035687133186, -0.00000000000000 ]
      - [ -0.55035687231993, -0.00000000000463 ]
      - [  0.00001284628558,  0.00000000000000 ]
  - # 2
    frequency:    0.6141642714
    eigenvector:
    - # atom 1
      - [ -0.44396766380618,  0.00000000000000 ]
      - [  0.44396766300911,  0.00000000000374 ]
      - [  0.00000000000000, -0.00000000000000 ]
    - # atom 2
      - [  0.55035689728771,  0.00000000000000 ]
      - [ -0.55035689629963, -0.00000000000463 ]
      - [ -0.00000000000000,  0.00000000000000 ]
  - # 3
    frequency:    1.1272932464
    eigenvector:
    - # atom 1
      - [ -0.00000731593661, -0.00000000000000 ]
      - [ -0.00000731593662,  0.00000000000000 ]
      - [ -0.62774853624521,  0.00000000000539 ]
    - # atom 2
      - [  0.00000911245532, -0.00000000000000 ]
      - [  0.00000911245534, -0.00000000000000 ]
      - [  0.77841619649701, -0.00000000000668 ]
  - # 4
    frequency:    9.1991775758
    eigenvector:
    - # atom 1
      - [  0.55035686917571,  0.00000000000000 ]
      - [  0.55035687462695,  0.00000000001159 ]
      - [ -0.00000001795995,  0.00000000000000 ]
    - # atom 2
      - [  0.44396769206627,  0.00000000000000 ]
      - [  0.44396769646373,  0.00000000000935 ]
      - [ -0.00000006396824, -0.00000000000000 ]
  - # 5
    frequency:    9.1991777137
    eigenvector:
    - # atom 1
      - [ -0.55035689951929,  0.00000000000000 ]
      - [  0.55035689406805,  0.00000000001159 ]
      - [  0.00000000000000, -0.00000000000000 ]
    - # atom 2
      - [ -0.44396766560638, -0.00000000000000 ]
      - [  0.44396766120891,  0.00000000000935 ]
      - [  0.00000000000000, -0.00000000000000 ]
  - # 6
    frequency:   10.5915014288
    eigenvector:
    - # atom 1
      - [  0.00000004255387,  0.00000000000000 ]
      - [  0.00000004255387, -0.00000000000000 ]
      - [  0.77841619660301, -0.00000000005715 ]
    - # atom 2
      - [  0.00000000821756,  0.00000000000000 ]
      - [  0.00000000821756, -0.00000000000000 ]
      - [  0.62774853633130, -0.00000000004609 ]

- q-position: [    0.0400920,    0.0400920,    1.0000000 ]
  distance:    0.0141461
  band:
  - # 1
    frequency:    0.7009505425
    eigenvector:
    - # atom 1
      - [  0.44411182537574,  0.00000000000000 ]
      - [  0.44411182693889,  0.00000000000448 ]
      - [ -0.00000776018735, -0.00000000000000 ]
    - # atom 2
      - [ -0.55024056986525, -0.00000000000000 ]
      - [ -0.55024057180194, -0.00000000000555 ]
      - [  0.00000957369680,  0.00000000000000 ]
  - # 2
    frequency:    0.7009657030
    eigenvector:
    - # atom 1
      - [  0.44411179680509, -0.00000000000000 ]
      - [ -0.44411179524194, -0.00000000000448 ]
      - [ -0.00000000000001,  0.00000000000000 ]
    - # atom 2
      - [ -0.55024059619262, -0.00000000000000 ]
      - [  0.55024059425593,  0.00000000000555 ]
      - [  0.00000000000001, -0.00000000000000 ]
  - # 3
    frequency:    1.2874647416
    eigenvector:
    - # atom 1
      - [  0.00000545244966,  0.00000000000000 ]
      - [  0.00000545244967, -0.00000000000000 ]
      - [  0.62792095121958, -0.00000000000512 ]
    - # atom 2
      - [ -0.00000679773453,  0.00000000000000 ]
      - [ -0.00000679773453,  0.00000000000000 ]
      - [ -0.77827712215355,  0.00000000000634 ]
  - # 4
    frequency:    9.2022995398
    eigenvector:
    - # atom 1
      - [  0.55024056159460,  0.00000000000000 ]
      - [  0.55024058015657,  0.00000000001177 ]
      - [ -0.00000001755987,  0.00000000000000 ]
    - # atom 2
      - [  0.44411181869989,  0.00000000000000 ]
      - [  0.44411183368168,  0.00000000000950 ]
      - [ -0.00000006246717, -0.00000000000000 ]
  - # 5
    frequency:    9.2022996762
    eigenvector:
    - # atom 1
      - [ -0.55024060450526,  0.00000000000000 ]
      - [  0.55024058594329,  0.00000000001177 ]
      - [  0.00000000000000, -0.00000000000000 ]
    - # atom 2
      - [ -0.44411180351441, -0.00000000000000 ]
      - [  0.44411178853262,  0.00000000000950 ]
      - [  0.00000000000000, -0.00000000000000 ]
  - # 6
    frequency:   10.5762181750
    eigenvector:
    - # atom 1
      - [  0.00000004156071,  0.00000000000000 ]
      - [  0.00000004156071, -0.00000000000000 ]
      - [  0.77827712221244, -0.00000000004592 ]
    - # atom 2
      - [  0.00000000805441,  0.00000000000000 ]
      - [  0.00000000805441, -0.00000000000000 ]
      - [  0.62792095126753, -0.00000000003705 ]

- q-position: [    0.0450910,    0.0450910,    1.0000000 ]
  distance:    0.0159143
  band:
  - # 1
    frequency:    0.7874811968
    eigenvector:
    - # atom 1
      - [  0.44427473437730,  0.00000000000000 ]
      - [  0.44427473468338,  0.00000000000505 ]
      - [ -0.00000597871022, -0.00000000000000 ]
    - # atom 2
      - [ -0.55010904374000, -0.00000000000000 ]
      - [ -0.55010904411899, -0.00000000000625 ]
      - [  0.00000736286184,  0.00000000000000 ]
  - # 2
    frequency:    0.7874944005
    eigenvector:
    - # atom 1
      - [  0.44427470520987, -0.00000000000000 ]
      - [ -0.44427470490380, -0.00000000000505 ]
      - [ -0.00000000000001,  0.00000000000000 ]
    - # atom 2
      - [ -0.55010906796302, -0.00000000000000 ]
      - [  0.55010906758403,  0.00000000000625 ]
      - [  0.00000000000001, -0.00000000000000 ]
  - # 3
    frequency:    1.4474694772
    eigenvector:
    - # atom 1
      - [  0.00000419353712,  0.00000000000000 ]
      - [  0.00000419353711,  0.00000000000000 ]
      - [  0.62811813765089,  0.00000000000572 ]
    - # atom 2
      - [ -0.00000523382270, -0.00000000000000 ]
      - [ -0.00000523382269, -0.00000000000000 ]
      - [ -0.77811798916618, -0.00000000000708 ]
  - # 4
    frequency:    9.2058406586
    eigenvector:
    - # atom 1
      - [  0.55010904095086,  0.00000000000000 ]
      - [  0.55010904695791,  0.00000000001376 ]
      - [ -0.00000001722495, -0.00000000000000 ]
    - # atom 2
      - [  0.44427473212444,  0.00000000000000 ]
      - [  0.44427473697582,  0.00000000001111 ]
      - [ -0.00000006107596, -0.00000000000000 ]
  - # 5
    frequency:    9.2058407935
    eigenvector:
    - # atom 1
      - [ -0.55010907077706,  0.00000000000000 ]
      - [  0.55010906477000,  0.00000000001376 ]
      - [ -0.00000000000000, -0.00000000000000 ]
    - # atom 2
      - [ -0.44427470748252, -0.00000000000000 ]
      - [  0.44427470263115,  0.00000000001111 ]
      - [ -0.00000000000000, -0.00000000000000 ]
  - # 6
    frequency:   10.5589932394
    eigenvector:
    - # atom 1
      - [  0.00000004064779,  0.00000000000000 ]
      - [  0.00000004064779, -0.00000000000000 ]
      - [  0.77811798920102, -0.00000000001716 ]
    - # atom 2
      - [  0.00000000792812, -0.00000000000000 ]
      - [  0.00000000792812, -0.00000000000000 ]
      - [  0.62811813767934, -0.00000000001385 ]

- q-position: [    0.0500900,    0.0500900,    1.0000000 ]
  distance:    0.0176826
  band:
  - # 1
    frequency:    0.8737061987
    eigenvector:
    - # atom 1
      - [  0.44445626857579,  0.00000000000000 ]
      - [  0.44445626981485,  0.00000000000571 ]
      - [ -0.00000472317773, -0.00000000000000 ]
    - # atom 2
      - [ -0.54996238407893, -0.00000000000000 ]
      - [ -0.54996238561211, -0.00000000000706 ]
      - [  0.00000580508508,  0.00000000000000 ]
  - # 2
    frequency:    0.8737178442
    eigenvector:
    - # atom 1
      - [  0.44445624099212, -0.00000000000000 ]
      - [ -0.44445623975307, -0.00000000000571 ]
      - [ -0.00000000000000,  0.00000000000000 ]
    - # atom 2
      - [ -0.54996240893088, -0.00000000000000 ]
      - [  0.54996240739769,  0.00000000000706 ]
      - [  0.00000000000001, -0.00000000000000 ]
  - # 3
    frequency:    1.6072859411
    eigenvector:
    - # atom 1
      - [  0.00000330648313,  0.00000000000000 ]
      - [  0.00000330648313,  0.00000000000000 ]
      - [  0.62834081779741,  0.00000000000563 ]
    - # atom 2
      - [ -0.00000413172656, -0.00000000000000 ]
      - [ -0.00000413172657, -0.00000000000000 ]
      - [ -0.77793818304135, -0.00000000000697 ]
  - # 4
    frequency:    9.2098022309
    eigenvector:
    - # atom 1
      - [  0.54996238048349,  0.00000000000000 ]
      - [  0.54996238923859,  0.00000000001534 ]
      - [ -0.00000001695312, -0.00000000000000 ]
    - # atom 2
      - [  0.44445626566987,  0.00000000000000 ]
      - [  0.44445627274537,  0.00000000001240 ]
      - [ -0.00000005979035, -0.00000000000000 ]
  - # 5
    frequency:    9.2098023644
    eigenvector:
    - # atom 1
      - [  0.54996241254183,  0.00000000000000 ]
      - [ -0.54996240378673, -0.00000000001534 ]
      - [ -0.00000000000000,  0.00000000000000 ]
    - # atom 2
      - [  0.44445624391035,  0.00000000000000 ]
      - [ -0.44445623683485, -0.00000000001240 ]
      - [ -0.00000000000000,  0.00000000000000 ]
  - # 6
    frequency:   10.5398602039
    eigenvector:
    - # atom 1
      - [ -0.00000003981193, -0.00000000000000 ]
      - [ -0.00000003981193,  0.00000000000000 ]
      - [ -0.77793818306301,  0.00000000002047 ]
    - # atom 2
      - [ -0.00000000783775,  0.00000000000000 ]
      - [ -0.00000000783775,  0.00000000000000 ]
      - [ -0.62834081781516,  0.00000000001653 ]

- q-position: [    0.0550890,    0.0550890,    1.0000000 ]
  distance:    0.0194508
  band:
  - # 1
    frequency:    0.9595935844
    eigenvector:
    - # atom 1
      - [  0.44465625921501,  0.00000000000000 ]
      - [  0.44465626090994,  0.00000000000642 ]
      - [ -0.00000380807435, -0.00000000000000 ]
    - # atom 2
      - [ -0.54980069954199, -0.00000000000000 ]
      - [ -0.54980070163772, -0.00000000000794 ]
      - [  0.00000466999315,  0.00000000000000 ]
  - # 2
    frequency:    0.9596039616
    eigenvector:
    - # atom 1
      - [ -0.44465623272586,  0.00000000000000 ]
      - [  0.44465623103092,  0.00000000000642 ]
      - [  0.00000000000001, -0.00000000000000 ]
    - # atom 2
      - [  0.54980072444836,  0.00000000000000 ]
      - [ -0.54980072235263, -0.00000000000794 ]
      - [ -0.00000000000002,  0.00000000000000 ]
  - # 3
    frequency:    1.7668922932
    eigenvector:
    - # atom 1
      - [  0.00000266011050,  0.00000000000000 ]
      - [  0.00000266011049,  0.00000000000000 ]
      - [  0.62858981874946,  0.00000000000007 ]
    - # atom 2
      - [ -0.00000332854583,  0.00000000000000 ]
      - [ -0.00000332854582,  0.00000000000000 ]
      - [ -0.77773699907373, -0.00000000000009 ]
  - # 4
    frequency:    9.2141855947
    eigenvector:
    - # atom 1
      - [  0.54980068609065,  0.00000000000000 ]
      - [  0.54980071510921,  0.00000000001611 ]
      - [ -0.00000001674302,  0.00000000000000 ]
    - # atom 2
      - [  0.44465624833592,  0.00000000000000 ]
      - [  0.44465627180495,  0.00000000001303 ]
      - [ -0.00000005860688, -0.00000000000000 ]
  - # 5
    frequency:    9.2141857267
    eigenvector:
    - # atom 1
      - [  0.54980073790978,  0.00000000000000 ]
      - [ -0.54980070889121, -0.00000000001611 ]
      - [ -0.00000000000000,  0.00000000000000 ]
    - # atom 2
      - [  0.44465624361291,  0.00000000000000 ]
      - [ -0.44465622014388, -0.00000000001303 ]
      - [ -0.00000000000000,  0.00000000000000 ]
  - # 6
    frequency:   10.5188563957
    eigenvector:
    - # atom 1
      - [ -0.00000003905054, -0.00000000000000 ]
      - [ -0.00000003905054,  0.00000000000000 ]
      - [ -0.77773699908775,  0.00000000008076 ]
    - # atom 2
      - [ -0.00000000778279,  0.00000000000000 ]
      - [ -0.00000000778279,  0.00000000000000 ]
      - [ -0.62858981876099,  0.00000000006527 ]

- q-position: [    0.0600880,    0.0600880,    1.0000000 ]
  distance:    0.0212191
  band:
  - # 1
    frequency:    1.0451118596
    eigenvector:
    - # atom 1
      - [  0.44487451547741,  0.00000000000000 ]
      - [  0.44487451731933,  0.00000000000696 ]
      - [ -0.00000312254408, -0.00000000000000 ]
    - # atom 2
      - [ -0.54962411100352, -0.00000000000000 ]
      - [ -0.54962411327913, -0.00000000000860 ]
      - [  0.00000381992624,  0.00000000000000 ]
  - # 2
    frequency:    1.0451211856
    eigenvector:
    - # atom 1
      - [ -0.44487448976072,  0.00000000000000 ]
      - [  0.44487448791880,  0.00000000000696 ]