  686

    1
0.0000000000e+00 0.0000000000e+00 0.0000000000e+00
0.0000000000e+00 0.0000000000e+00 0.0000000000e+00
     1      1      1
 1  1  1     0.0000000000e+00
 1  1  2     0.0000000000e+00
 1  1  3     0.0000000000e+00
 1  2  1     0.0000000000e+00
 1  2  2     0.0000000000e+00
 1  2  3     0.0000000000e+00
 1  3  1     0.0000000000e+00
 1  3  2     0.0000000000e+00
 1  3  3     0.0000000000e+00
 2  1  1     0.0000000000e+00
 2  1  2     0.0000000000e+00
 2  1  3     0.0000000000e+00
 2  2  1     0.0000000000e+00
 2  2  2     0.0000000000e+00
 2  2  3     0.0000000000e+00
 2  3  1     0.0000000000e+00
 2  3  2     0.0000000000e+00
 2  3  3     0.0000000000e+00
 3  1  1     0.0000000000e+00
 3  1  2     0.0000000000e+00
 3  1  3     0.0000000000e+00
 3  2  1     0.0000000000e+00
 3  2  2     0.0000000000e+00
 3  2  3     0.0000000000e+00
 3  3  1     0.0000000000e+00
 3  3  2     0.0000000000e+00
 3  3  3     0.0000000000e+00

    2
0.0000000000e+00 0.0000000000e+00 0.0000000000e+00
0.0000000000e+00 0.0000000000e+00 0.0000000000e+00
     1      1      2
 1  1  1     2.1449047088e-04
 1  1  2     3.0348083865e-03
 1  1  3     3.0348083865e-03
 1  2  1     2.8128200199e-03
 1  2  2     2.8128200199e-03
 1  2  3     4.3273870279e-03
 1  3  1     2.8128200199e-03
 1  3  2     4.3273870279e-03
 1  3  3     2.8128200199e-03
 2  1  1     2.8128200199e-03
 2  1  2     2.8128200199e-03
 2  1  3     4.3273870279e-03
 2  2  1     3.0348083865e-03
 2  2  2     2.1449047088e-04
 2  2  3     3.0348083865e-03
 2  3  1     4.3273870279e-03
 2  3  2     2.8128200199e-03
 2  3  3     2.8128200199e-03
 3  1  1     2.8128200199e-03
 3  1  2     4.3273870279e-03
 3  1  3     2.8128200199e-03
 3  2  1     4.3273870279e-03
 3  2  2     2.8128200199e-03
 3  2  3     2.8128200199e-03
 3  3  1     3.0348083865e-03
 3  3  2     3.0348083865e-03
 3  3  3     2.1449047088e-04

    3
0.0000000000e+00 0.0000000000e+00 0.0000000000e+00
0.0000000000e+00 2.8270747338e+00 2.8270747338e+00
     1      1      1
 1  1  1     0.0000000000e+00
 1  1  2     7.6160259138e-02
 1  1  3     7.6160259138e-02
 1  2  1     7.5513969816e-02
 1  2  2     0.0000000000e+00
 1  2  3     0.0000000000e+00
 1  3  1     7.5513969816e-02
 1  3  2     0.0000000000e+00
 1  3  3     0.0000000000e+00
 2  1  1     7.5513969816e-02
 2  1  2     0.0000000000e+00
 2  1  3     0.0000000000e+00
 2  2  1     0.0000000000e+00
 2  2  2    -2.5579030587e-01
 2  2  3    -4.0707926913e-01
 2  3  1     0.0000000000e+00
 2  3  2    -4.0661081116e-01
 2  3  3    -4.0661081116e-01
 3  1  1     7.5513969816e-02
 3  1  2     0.0000000000e+00
 3  1  3     0.0000000000e+00
 3  2  1     0.0000000000e+00
 3  2  2    -4.0661081116e-01
 3  2  3    -4.0661081116e-01
 3  3  1     0.0000000000e+00
 3  3  2    -4.0707926913e-01
 3  3  3    -2.5579030587e-01

    4
0.0000000000e+00 0.0000000000e+00 0.0000000000e+00
0.0000000000e+00 -5.6541494677e+00 -5.6541494677e+00
     1      1      2
 1  1  1     2.1449047088e-04
 1  1  2    -3.0348083865e-03
 1  1  3    -3.0348083865e-03
 1  2  1    -2.8128200199e-03
 1  2  2     2.8128200199e-03
 1  2  3     4.3273870279e-03
 1  3  1    -2.8128200199e-03
 1  3  2     4.3273870279e-03
 1  3  3     2.8128200199e-03
 2  1  1    -2.8128200199e-03
 2  1  2     2.8128200199e-03
 2  1  3     4.3273870279e-03
 2  2  1     3.0348083865e-03
 2  2  2    -2.1449047088e-04
 2  2  3    -3.0348083865e-03
 2  3  1     4.3273870279e-03
 2  3  2    -2.8128200199e-03
 2  3  3    -2.8128200199e-03
 3  1  1    -2.8128200199e-03
 3  1  2     4.3273870279e-03
 3  1  3     2.8128200199e-03
 3  2  1     4.3273870279e-03
 3  2  2    -2.8128200199e-03
 3  2  3    -2.8128200199e-03
 3  3  1     3.0348083865e-03
 3  3  2    -3.0348083865e-03
 3  3  3    -2.1449047088e-04

    5
0.0000000000e+00 0.0000000000e+00 0.0000000000e+00
0.0000000000e+00 -2.8270747338e+00 -2.8270747338e+00
     1      1      1
 1  1  1     0.0000000000e+00
 1  1  2    -7.6160259138e-02
 1  1  3    -7.6160259138e-02
 1  2  1    -7.5513969816e-02
 1  2  2     0.0000000000e+00
 1  2  3     0.0000000000e+00
 1  3  1    -7.5513969816e-02
 1  3  2     0.0000000000e+00
 1  3  3     0.0000000000e+00
 2  1  1    -7.5513969816e-02
 2  1  2     0.0000000000e+00
 2  1  3     0.0000000000e+00
 2  2  1     0.0000000000e+00
 2  2  2     2.5579030587e-01
 2  2  3     4.0707926913e-01
 2  3  1     0.0000000000e+00
 2  3  2     4.0661081116e-01
 2  3  3     4.0661081116e-01
 3  1  1    -7.5513969816e-02
 3  1  2     0.0000000000e+00
 3  1  3     0.0000000000e+00
 3  2  1     0.0000000000e+00
 3  2  2     4.0661081116e-01
 3  2  3     4.0661081116e-01
 3  3  1     0.0000000000e+00
 3  3  2     4.0707926913e-01
 3  3  3     2.5579030587e-01

    6
0.0000000000e+00 0.0000000000e+00 0.0000000000e+00
0.0000000000e+00 -2.8270747338e+00 -2.8270747338e+00
     1      1      2
 1  1  1    -1.5719027919e+01
 1  1  2     0.0000000000e+00
 1  1  3     0.0000000000e+00
 1  2  1     0.0000000000e+00
 1  2  2     6.4525380272e-01
 1  2  3     0.0000000000e+00
 1  3  1     0.0000000000e+00
 1  3  2     0.0000000000e+00
 1  3  3     6.4525380272e-01
 2  1  1     0.0000000000e+00
 2  1  2     6.4525380272e-01
 2  1  3     0.0000000000e+00
 2  2  1     6.4399007937e-01
 2  2  2     0.0000000000e+00
 2  2  3     0.0000000000e+00
 2  3  1     0.0000000000e+00
 2  3  2     0.0000000000e+00
 2  3  3     0.0000000000e+00
 3  1  1     0.0000000000e+00
 3  1  2     0.0000000000e+00
 3  1  3     6.4525380272e-01
 3  2  1     0.0000000000e+00
 3  2  2     0.0000000000e+00
 3  2  3     0.0000000000e+00
 3  3  1     6.4399007937e-01
 3  3  2     0.0000000000e+00
 3  3  3     0.0000000000e+00

    7
0.0000000000e+00 0.0000000000e+00 0.0000000000e+00
2.8270747338e+00 0.0000000000e+00 2.8270747338e+00
     1      1      1
 1  1  1    -2.5579030587e-01
 1  1  2     0.0000000000e+00
 1  1  3    -4.0707926913e-01
 1  2  1     0.0000000000e+00
 1  2  2     7.5513969816e-02
 1  2  3     0.0000000000e+00
 1  3  1    -4.0661081116e-01
 1  3  2     0.0000000000e+00
 1  3  3    -4.0661081116e-01
 2  1  1     0.0000000000e+00
 2  1  2     7.5513969816e-02
 2  1  3     0.0000000000e+00
 2  2  1     7.6160259138e-02
 2  2  2     0.0000000000e+00
 2  2  3     7.6160259138e-02
 2  3  1     0.0000000000e+00
 2  3  2     7.5513969816e-02
 2  3  3     0.0000000000e+00
 3  1  1    -4.0661081116e-01
 3  1  2     0.0000000000e+00
 3  1  3    -4.0661081116e-01
 3  2  1     0.0000000000e+00
 3  2  2     7.5513969816e-02
 3  2  3     0.0000000000e+00
 3  3  1    -4.0707926913e-01
 3  3  2     0.0000000000e+00
 3  3  3    -2.5579030587e-01

    8
0.0000000000e+00 0.0000000000e+00 0.0000000000e+00
-5.6541494677e+00 0.0000000000e+00 -5.6541494677e+00
     1      1      2
 1  1  1    -2.1449047088e-04
 1  1  2     3.0348083865e-03
 1  1  3    -3.0348083865e-03
 1  2  1     2.8128200199e-03
 1  2  2    -2.8128200199e-03
 1  2  3     4.3273870279e-03
 1  3  1    -2.8128200199e-03
 1  3  2     4.3273870279e-03
 1  3  3    -2.8128200199e-03
 2  1  1     2.8128200199e-03
 2  1  2    -2.8128200199e-03
 2  1  3     4.3273870279e-03
 2  2  1    -3.0348083865e-03
 2  2  2     2.1449047088e-04
 2  2  3    -3.0348083865e-03
 2  3  1     4.3273870279e-03
 2  3  2    -2.8128200199e-03
 2  3  3     2.8128200199e-03
 3  1  1    -2.8128200199e-03
 3  1  2     4.3273870279e-03
 3  1  3    -2.8128200199e-03
 3  2  1     4.3273870279e-03
 3  2  2    -2.8128200199e-03
 3  2  3     2.8128200199e-03
 3  3  1    -3.0348083865e-03
 3  3  2     3.0348083865e-03
 3  3  3    -2.1449047088e-04

    9
0.0000000000e+00 0.0000000000e+00 0.0000000000e+00
2.8270747338e+00 -2.8270747338e+00 -5.5511151231e-16
     1      1      1
 1  1  1    -2.5579030587e-01
 1  1  2     4.0707926913e-01
 1  1  3     0.0000000000e+00
 1  2  1     4.0661081116e-01
 1  2  2    -4.0661081116e-01
 1  2  3     0.0000000000e+00
 1  3  1     0.0000000000e+00
 1  3  2     0.0000000000e+00
 1  3  3     7.5513969816e-02
 2  1  1     4.0661081116e-01
 2  1  2    -4.0661081116e-01
 2  1  3     0.0000000000e+00
 2  2  1    -4.0707926913e-01
 2  2  2     2.5579030587e-01
 2  2  3     0.0000000000e+00
 2  3  1     0.0000000000e+00
 2  3  2     0.0000000000e+00
 2  3  3    -7.5513969816e-02
 3  1  1     0.0000000000e+00
 3  1  2     0.0000000000e+00
 3  1  3     7.5513969816e-02
 3  2  1     0.0000000000e+00
 3  2  2     0.0000000000e+00
 3  2  3    -7.5513969816e-02
 3  3  1     7.6160259138e-02
 3  3  2    -7.6160259138e-02
 3  3  3     0.0000000000e+00

   10
0.0000000000e+00 0.0000000000e+00 0.0000000000e+00
-2.8270747338e+00 0.0000000000e+00 -2.8270747338e+00
     1      1      1
 1  1  1     2.5579030587e-01
 1  1  2     0.0000000000e+00
 1  1  3     4.0707926913e-01
 1  2  1     0.0000000000e+00
 1  2  2    -7.5513969816e-02
 1  2  3     0.0000000000e+00
 1  3  1     4.0661081116e-01
 1  3  2     0.0000000000e+00
 1  3  3     4.0661081116e-01
 2  1  1     0.0000000000e+00
 2  1  2    -7.5513969816e-02
 2  1  3     0.0000000000e+00
 2  2  1    -7.6160259138e-02
 2  2  2     0.0000000000e+00
 2  2  3    -7.6160259138e-02
 2  3  1     0.0000000000e+00
 2  3  2    -7.5513969816e-02
 2  3  3     0.0000000000e+00
 3  1  1     4.0661081116e-01
 3  1  2     0.0000000000e+00
 3  1  3     4.0661081116e-01
 3  2  1     0.0000000000e+00
 3  2  2    -7.5513969816e-02
 3  2  3     0.0000000000e+00
 3  3  1     4.0707926913e-01
 3  3  2     0.0000000000e+00
 3  3  3     2.5579030587e-01

   11
0.0000000000e+00 0.0000000000e+00 0.0000000000e+00
-2.8270747338e+00 0.0000000000e+00 -2.8270747338e+00
     1      1      2
 1  1  1     0.0000000000e+00
 1  1  2     6.4399007937e-01
 1  1  3     0.0000000000e+00
 1  2  1     6.4525380272e-01
 1  2  2     0.0000000000e+00
 1  2  3     0.0000000000e+00
 1  3  1     0.0000000000e+00
 1  3  2     0.0000000000e+00
 1  3  3     0.0000000000e+00
 2  1  1     6.4525380272e-01
 2  1  2     0.0000000000e+00
 2  1  3     0.0000000000e+00
 2  2  1     0.0000000000e+00
 2  2  2    -1.5719027919e+01
 2  2  3     0.0000000000e+00
 2  3  1     0.0000000000e+00
 2  3  2     0.0000000000e+00
 2  3  3     6.4525380272e-01
 3  1  1     0.0000000000e+00
 3  1  2     0.0000000000e+00
 3  1  3     0.0000000000e+00
 3  2  1     0.0000000000e+00
 3  2  2     0.0000000000e+00
 3  2  3     6.4525380272e-01
 3  3  1     0.0000000000e+00
 3  3  2     6.4399007937e-01
 3  3  3     0.0000000000e+00

   12
0.0000000000e+00 0.0000000000e+00 0.0000000000e+00
-2.8270747338e+00 2.8270747338e+00 -5.5511151231e-16
     1      1      1
 1  1  1     2.5579030587e-01
 1  1  2    -4.0707926913e-01
 1  1  3     0.0000000000e+00
 1  2  1    -4.0661081116e-01
 1  2  2     4.0661081116e-01
 1  2  3     0.0000000000e+00
 1  3  1     0.0000000000e+00
 1  3  2     0.0000000000e+00
 1  3  3    -7.5513969816e-02
 2  1  1    -4.0661081116e-01
 2  1  2     4.0661081116e-01
 2  1  3     0.0000000000e+00
 2  2  1     4.0707926913e-01
 2  2  2    -2.5579030587e-01
 2  2  3     0.0000000000e+00
 2  3  1     0.0000000000e+00
 2  3  2     0.0000000000e+00
 2  3  3     7.5513969816e-02
 3  1  1     0.0000000000e+00
 3  1  2     0.0000000000e+00
 3  1  3    -7.5513969816e-02
 3  2  1     0.0000000000e+00
 3  2  2     0.0000000000e+00
 3  2  3     7.5513969816e-02
 3  3  1    -7.6160259138e-02
 3  3  2     7.6160259138e-02
 3  3  3     0.0000000000e+00

   13
0.0000000000e+00 0.0000000000e+00 0.0000000000e+00
-2.8270747338e+00 -2.8270747338e+00 -5.6541494677e+00
     1      1      2
 1  1  1     0.0000000000e+00
 1  1  2     0.0000000000e+00
 1  1  3    -6.4399007937e-01
 1  2  1     0.0000000000e+00
 1  2  2     0.0000000000e+00
 1  2  3     0.0000000000e+00
 1  3  1    -6.4525380272e-01
 1  3  2     0.0000000000e+00
 1  3  3     0.0000000000e+00
 2  1  1     0.0000000000e+00
 2  1  2     0.0000000000e+00
 2  1  3     0.0000000000e+00
 2  2  1     0.0000000000e+00
 2  2  2     0.0000000000e+00
 2  2  3    -6.4399007937e-01
 2  3  1     0.0000000000e+00
 2  3  2    -6.4525380272e-01
 2  3  3     0.0000000000e+00
 3  1  1    -6.4525380272e-01
 3  1  2     0.0000000000e+00
 3  1  3     0.0000000000e+00
 3  2  1     0.0000000000e+00
 3  2  2    -6.4525380272e-01
 3  2  3     0.0000000000e+00
 3  3  1     0.0000000000e+00
 3  3  2     0.0000000000e+00
 3  3  3     1.5719027919e+01

   14
0.0000000000e+00 0.0000000000e+00 0.0000000000e+00
2.8270747338e+00 2.8270747338e+00 0.0000000000e+00
     1      1      1
 1  1  1    -2.5579030587e-01
 1  1  2    -4.0707926913e-01
 1  1  3     0.0000000000e+00
 1  2  1    -4.0661081116e-01
 1  2  2    -4.0661081116e-01
 1  2  3     0.0000000000e+00
 1  3  1     0.0000000000e+00
 1  3  2     0.0000000000e+00
 1  3  3     7.5513969816e-02
 2  1  1    -4.0661081116e-01
 2  1  2    -4.0661081116e-01
 2  1  3     0.0000000000e+00
 2  2  1    -4.0707926913e-01
 2  2  2    -2.5579030587e-01
 2  2  3     0.0000000000e+00
 2  3  1     0.0000000000e+00
 2  3  2     0.0000000000e+00
 2  3  3     7.5513969816e-02
 3  1  1     0.0000000000e+00
 3  1  2     0.0000000000e+00
 3  1  3     7.5513969816e-02
 3  2  1     0.0000000000e+00
 3  2  2     0.0000000000e+00
 3  2  3     7.5513969816e-02
 3  3  1     7.6160259138e-02
 3  3  2     7.6160259138e-02
 3  3  3     0.0000000000e+00

   15
0.0000000000e+00 0.0000000000e+00 0.0000000000e+00
-5.6541494677e+00 -5.6541494677e+00 0.0000000000e+00
     1      1      2
 1  1  1    -2.1449047088e-04
 1  1  2    -3.0348083865e-03
 1  1  3     3.0348083865e-03
 1  2  1    -2.8128200199e-03
 1  2  2    -2.8128200199e-03
 1  2  3     4.3273870279e-03
 1  3  1     2.8128200199e-03
 1  3  2     4.3273870279e-03
 1  3  3    -2.8128200199e-03
 2  1  1    -2.8128200199e-03
 2  1  2    -2.8128200199e-03
 2  1  3     4.3273870279e-03
 2  2  1    -3.0348083865e-03
 2  2  2    -2.1449047088e-04
 2  2  3     3.0348083865e-03
 2  3  1     4.3273870279e-03
 2  3  2     2.8128200199e-03
 2  3  3    -2.8128200199e-03
 3  1  1     2.8128200199e-03
 3  1  2     4.3273870279e-03
 3  1  3    -2.8128200199e-03
 3  2  1     4.3273870279e-03
 3  2  2     2.8128200199e-03
 3  2  3    -2.8128200199e-03
 3  3  1    -3.0348083865e-03
 3  3  2    -3.0348083865e-03
 3  3  3     2.1449047088e-04

   16
0.0000000000e+00 0.0000000000e+00 0.0000000000e+00
2.8270747338e+00 -7.1204568540e-16 -2.8270747338e+00
     1      1      1
 1  1  1    -2.5579030587e-01
 1  1  2     0.0000000000e+00
 1  1  3     4.0707926913e-01
 1  2  1     0.0000000000e+00
 1  2  2     7.5513969816e-02
 1  2  3     0.0000000000e+00
 1  3  1     4.0661081116e-01
 1  3  2     0.0000000000e+00
 1  3  3    -4.0661081116e-01
 2  1  1     0.0000000000e+00
 2  1  2     7.5513969816e-02
 2  1  3     0.0000000000e+00
 2  2  1     7.6160259138e-02
 2  2  2     0.0000000000e+00
 2  2  3    -7.6160259138e-02
 2  3  1     0.0000000000e+00
 2  3  2    -7.5513969816e-02
 2  3  3     0.0000000000e+00
 3  1  1     4.0661081116e-01
 3  1  2     0.0000000000e+00
 3  1  3    -4.0661081116e-01
 3  2  1     0.0000000000e+00
 3  2  2    -7.5513969816e-02
 3  2  3     0.0000000000e+00
 3  3  1    -4.0707926913e-01
 3  3  2     0.0000000000e+00
 3  3  3     2.5579030587e-01

   17
0.0000000000e+00 0.0000000000e+00 0.0000000000e+00
-5.5511151231e-16 2.8270747338e+00 -2.8270747338e+00
     1      1      1
 1  1  1     0.0000000000e+00
 1  1  2     7.6160259138e-02
 1  1  3    -7.6160259138e-02
 1  2  1     7.5513969816e-02
 1  2  2     0.0000000000e+00
 1  2  3     0.0000000000e+00
 1  3  1    -7.5513969816e-02
 1  3  2     0.0000000000e+00
 1  3  3     0.0000000000e+00
 2  1  1     7.5513969816e-02
 2  1  2     0.0000000000e+00
 2  1  3     0.0000000000e+00
 2  2  1     0.0000000000e+00
 2  2  2    -2.5579030587e-01
 2  2  3     4.0707926913e-01
 2  3  1     0.0000000000e+00
 2  3  2     4.0661081116e-01
 2  3  3    -4.0661081116e-01
 3  1  1    -7.5513969816e-02
 3  1  2     0.0000000000e+00
 3  1  3     0.0000000000e+00
 3  2  1     0.0000000000e+00
 3  2  2     4.0661081116e-01
 3  2  3    -4.0661081116e-01
 3  3  1     0.0000000000e+00
 3  3  2    -4.0707926913e-01
 3  3  3     2.5579030587e-01

   18
0.0000000000e+00 0.0000000000e+00 0.0000000000e+00
1.1102230246e-15 8.6897985850e-16 -5.6541494677e+00
     1      1      2
 1  1  1     2.1449047088e-04
 1  1  2     3.0348083865e-03
 1  1  3    -3.0348083865e-03
 1  2  1     2.8128200199e-03
 1  2  2     2.8128200199e-03
 1  2  3    -4.3273870279e-03
 1  3  1    -2.8128200199e-03
 1  3  2    -4.3273870279e-03
 1  3  3     2.8128200199e-03
 2  1  1     2.8128200199e-03
 2  1  2     2.8128200199e-03
 2  1  3    -4.3273870279e-03
 2  2  1     3.0348083865e-03
 2  2  2     2.1449047088e-04
 2  2  3    -3.0348083865e-03
 2  3  1    -4.3273870279e-03
 2  3  2    -2.8128200199e-03
 2  3  3     2.8128200199e-03
 3  1  1    -2.8128200199e-03
 3  1  2    -4.3273870279e-03
 3  1  3     2.8128200199e-03
 3  2  1    -4.3273870279e-03
 3  2  2    -2.8128200199e-03
 3  2  3     2.8128200199e-03
 3  3  1     3.0348083865e-03
 3  3  2     3.0348083865e-03
 3  3  3    -2.1449047088e-04

   19
0.0000000000e+00 0.0000000000e+00 0.0000000000e+00
-2.8270747338e+00 -2.8270747338e+00 0.0000000000e+00
     1      1      1
 1  1  1     2.5579030587e-01
 1  1  2     4.0707926913e-01
 1  1  3     0.0000000000e+00
 1  2  1     4.0661081116e-01
 1  2  2     4.0661081116e-01
 1  2  3     0.0000000000e+00
 1  3  1     0.0000000000e+00
 1  3  2     0.0000000000e+00
 1  3  3    -7.5513969816e-02
 2  1  1     4.0661081116e-01
 2  1  2     4.0661081116e-01
 2  1  3     0.0000000000e+00
 2  2  1     4.0707926913e-01
 2  2  2     2.5579030587e-01
 2  2  3     0.0000000000e+00
 2  3  1     0.0000000000e+00
 2  3  2     0.0000000000e+00
 2  3  3    -7.5513969816e-02
 3  1  1     0.0000000000e+00
 3  1  2     0.0000000000e+00
 3  1  3    -7.5513969816e-02
 3  2  1     0.0000000000e+00
 3  2  2     0.0000000000e+00
 3  2  3    -7.5513969816e-02
 3  3  1    -7.6160259138e-02
 3  3  2    -7.6160259138e-02
 3  3  3     0.0000000000e+00

   20
0.0000000000e+00 0.0000000000e+00 0.0000000000e+00
-2.8270747338e+00 -2.8270747338e+00 0.0000000000e+00
     1      1      2
 1  1  1     0.0000000000e+00
 1  1  2     0.0000000000e+00
 1  1  3     6.4399007937e-01
 1  2  1     0.0000000000e+00
 1  2  2     0.0000000000e+00
 1  2  3     0.0000000000e+00
 1  3  1     6.4525380272e-01
 1  3  2     0.0000000000e+00
 1  3  3     0.0000000000e+00
 2  1  1     0.0000000000e+00
 2  1  2     0.0000000000e+00
 2  1  3     0.0000000000e+00
 2  2  1     0.0000000000e+00
 2  2  2     0.0000000000e+00
 2  2  3     6.4399007937e-01
 2  3  1     0.0000000000e+00
 2  3  2     6.4525380272e-01
 2  3  3     0.0000000000e+00
 3  1  1     6.4525380272e-01
 3  1  2     0.0000000000e+00
 3  1  3     0.0000000000e+00
 3  2  1     0.0000000000e+00
 3  2  2     6.4525380272e-01
 3  2  3     0.0000000000e+00
 3  3  1     0.0000000000e+00
 3  3  2     0.0000000000e+00
 3  3  3    -1.5719027919e+01

   21
0.0000000000e+00 0.0000000000e+00 0.0000000000e+00
-2.8270747338e+00 -3.1386834618e-16 2.8270747338e+00
     1      1      1
 1  1  1     2.5579030587e-01
 1  1  2     0.0000000000e+00
 1  1  3    -4.0707926913e-01
 1  2  1     0.0000000000e+00
 1  2  2    -7.5513969816e-02
 1  2  3     0.0000000000e+00
 1  3  1    -4.0661081116e-01
 1  3  2     0.0000000000e+00
 1  3  3     4.0661081116e-01
 2  1  1     0.0000000000e+00
 2  1  2    -7.5513969816e-02
 2  1  3     0.0000000000e+00
 2  2  1    -7.6160259138e-02
 2  2  2     0.0000000000e+00
 2  2  3     7.6160259138e-02
 2  3  1     0.0000000000e+00
 2  3  2     7.5513969816e-02
 2  3  3     0.0000000000e+00
 3  1  1    -4.0661081116e-01
 3  1  2     0.0000000000e+00
 3  1  3     4.0661081116e-01
 3  2  1     0.0000000000e+00
 3  2  2     7.5513969816e-02
 3  2  3     0.0000000000e+00
 3  3  1     4.0707926913e-01
 3  3  2     0.0000000000e+00
 3  3  3    -2.5579030587e-01

   22
0.0000000000e+00 0.0000000000e+00 0.0000000000e+00
-2.8270747338e+00 -5.6541494677e+00 -2.8270747338e+00
     1      1      2
 1  1  1     0.0000000000e+00
 1  1  2    -6.4399007937e-01
 1  1  3     0.0000000000e+00
 1  2  1    -6.4525380272e-01
 1  2  2     0.0000000000e+00
 1  2  3     0.0000000000e+00
 1  3  1     0.0000000000e+00
 1  3  2     0.0000000000e+00
 1  3  3     0.0000000000e+00
 2  1  1    -6.4525380272e-01
 2  1  2     0.0000000000e+00
 2  1  3     0.0000000000e+00
 2  2  1     0.0000000000e+00
 2  2  2     1.5719027919e+01
 2  2  3     0.0000000000e+00
 2  3  1     0.0000000000e+00
 2  3  2     0.0000000000e+00
 2  3  3    -6.4525380272e-01
 3  1  1     0.0000000000e+00
 3  1  2     0.0000000000e+00
 3  1  3     0.0000000000e+00
 3  2  1     0.0000000000e+00
 3  2  2     0.0000000000e+00
 3  2  3    -6.4525380272e-01
 3  3  1     0.0000000000e+00
 3  3  2    -6.4399007937e-01
 3  3  3     0.0000000000e+00

   23
0.0000000000e+00 0.0000000000e+00 0.0000000000e+00
-5.5511151231e-16 -2.8270747338e+00 2.8270747338e+00
     1      1      1
 1  1  1     0.0000000000e+00
 1  1  2    -7.6160259138e-02
 1  1  3     7.6160259138e-02
 1  2  1    -7.5513969816e-02
 1  2  2     0.0000000000e+00
 1  2  3     0.0000000000e+00
 1  3  1     7.5513969816e-02
 1  3  2     0.0000000000e+00
 1  3  3     0.0000000000e+00
 2  1  1    -7.5513969816e-02
 2  1  2     0.0000000000e+00
 2  1  3     0.0000000000e+00
 2  2  1     0.0000000000e+00
 2  2  2     2.5579030587e-01
 2  2  3    -4.0707926913e-01
 2  3  1     0.0000000000e+00
 2  3  2    -4.0661081116e-01
 2  3  3     4.0661081116e-01
 3  1  1     7.5513969816e-02
 3  1  2     0.0000000000e+00
 3  1  3     0.0000000000e+00
 3  2  1     0.0000000000e+00
 3  2  2    -4.0661081116e-01
 3  2  3     4.0661081116e-01
 3  3  1     0.0000000000e+00
 3  3  2     4.0707926913e-01
 3  3  3    -2.5579030587e-01

   24
0.0000000000e+00 0.0000000000e+00 0.0000000000e+00
1.1102230246e-15 -5.6541494677e+00 1.1102230246e-15
     1      1      2
 1  1  1     2.1449047088e-04
 1  1  2    -3.0348083865e-03
 1  1  3     3.0348083865e-03
 1  2  1    -2.8128200199e-03
 1  2  2     2.8128200199e-03
 1  2  3    -4.3273870279e-03
 1  3  1     2.8128200199e-03
 1  3  2    -4.3273870279e-03
 1  3  3     2.8128200199e-03
 2  1  1    -2.8128200199e-03
 2  1  2     2.8128200199e-03
 2  1  3    -4.3273870279e-03
 2  2  1     3.0348083865e-03
 2  2  2    -2.1449047088e-04
 2  2  3     3.0348083865e-03
 2  3  1    -4.3273870279e-03
 2  3  2     2.8128200199e-03
 2  3  3    -2.8128200199e-03
 3  1  1     2.8128200199e-03
 3  1  2    -4.3273870279e-03
 3  1  3     2.8128200199e-03
 3  2  1    -4.3273870279e-03
 3  2  2     2.8128200199e-03
 3  2  3    -2.8128200199e-03
 3  3  1     3.0348083865e-03
 3  3  2    -3.0348083865e-03
 3  3  3     2.1449047088e-04

   25
0.0000000000e+00 0.0000000000e+00 0.0000000000e+00
-5.6541494677e+00 -2.8270747338e+00 -2.8270747338e+00
     1      1      2
 1  1  1     1.5719027919e+01
 1  1  2     0.0000000000e+00
 1  1  3     0.0000000000e+00
 1  2  1     0.0000000000e+00
 1  2  2    -6.4525380272e-01
 1  2  3     0.0000000000e+00
 1  3  1     0.0000000000e+00
 1  3  2     0.0000000000e+00
 1  3  3    -6.4525380272e-01
 2  1  1     0.0000000000e+00
 2  1  2    -6.4525380272e-01
 2  1  3     0.0000000000e+00
 2  2  1    -6.4399007937e-01
 2  2  2     0.0000000000e+00
 2  2  3     0.0000000000e+00
 2  3  1     0.0000000000e+00
 2  3  2     0.0000000000e+00
 2  3  3     0.0000000000e+00
 3  1  1     0.0000000000e+00
 3  1  2     0.0000000000e+00
 3  1  3    -6.4525380272e-01
 3  2  1     0.0000000000e+00
 3  2  2     0.0000000000e+00
 3  2  3     0.0000000000e+00
 3  3  1    -6.4399007937e-01
 3  3  2     0.0000000000e+00
 3  3  3     0.0000000000e+00

   26
0.0000000000e+00 0.0000000000e+00 0.0000000000e+00
-5.6541494677e+00 1.1828482047e-15 1.1102230246e-15
     1      1      2
 1  1  1    -2.1449047088e-04
 1  1  2     3.0348083865e-03
 1  1  3     3.0348083865e-03
 1  2  1     2.8128200199e-03
 1  2  2    -2.8128200199e-03
 1  2  3    -4.3273870279e-03
 1  3  1     2.8128200199e-03
 1  3  2    -4.3273870279e-03
 1  3  3    -2.8128200199e-03
 2  1  1     2.8128200199e-03
 2  1  2    -2.8128200199e-03
 2  1  3    -4.3273870279e-03
 2  2  1    -3.0348083865e-03
 2  2  2     2.1449047088e-04
 2  2  3     3.0348083865e-03
 2  3  1    -4.3273870279e-03
 2  3  2     2.8128200199e-03
 2  3  3     2.8128200199e-03
 3  1  1     2.8128200199e-03
 3  1  2    -4.3273870279e-03
 3  1  3    -2.8128200199e-03
 3  2  1    -4.3273870279e-03
 3  2  2     2.8128200199e-03
 3  2  3     2.8128200199e-03
 3  3  1    -3.0348083865e-03
 3  3  2     3.0348083865e-03
 3  3  3     2.1449047088e-04

   27
0.0000000000e+00 0.0000000000e+00 0.0000000000e+00
-5.6541494677e+00 -5.6541494677e+00 -5.6541494677e+00
     1      1      2
 1  1  1    -2.1449047088e-04
 1  1  2    -3.0348083865e-03
 1  1  3    -3.0348083865e-03
 1  2  1    -2.8128200199e-03
 1  2  2    -2.8128200199e-03
 1  2  3    -4.3273870279e-03
 1  3  1    -2.8128200199e-03
 1  3  2    -4.3273870279e-03
 1  3  3    -2.8128200199e-03
 2  1  1    -2.8128200199e-03
 2  1  2    -2.8128200199e-03
 2  1  3    -4.3273870279e-03
 2  2  1    -3.0348083865e-03
 2  2  2    -2.1449047088e-04
 2  2  3    -3.0348083865e-03
 2  3  1    -4.3273870279e-03
 2  3  2    -2.8128200199e-03
 2  3  3    -2.8128200199e-03
 3  1  1    -2.8128200199e-03
 3  1  2    -4.3273870279e-03
 3  1  3    -2.8128200199e-03
 3  2  1    -4.3273870279e-03
 3  2  2    -2.8128200199e-03
 3  2  3    -2.8128200199e-03
 3  3  1    -3.0348083865e-03
 3  3  2    -3.0348083865e-03
 3  3  3    -2.1449047088e-04

   28
0.0000000000e+00 0.0000000000e+00 0.0000000000e+00
0.0000000000e+00 0.0000000000e+00 0.0000000000e+00
     1      2      1
 1  1  1     2.1449047088e-04
 1  1  2     2.8128200199e-03
 1  1  3     2.8128200199e-03
 1  2  1     3.0348083865e-03
 1  2  2     2.8128200199e-03
 1  2  3     4.3273870279e-03
 1  3  1     3.0348083865e-03
 1  3  2     4.3273870279e-03
 1  3  3     2.8128200199e-03
 2  1  1     2.8128200199e-03
 2  1  2     3.0348083865e-03
 2  1  3     4.3273870279e-03
 2  2  1     2.8128200199e-03
 2  2  2     2.1449047088e-04
 2  2  3     2.8128200199e-03
 2  3  1     4.3273870279e-03
 2  3  2     3.0348083865e-03
 2  3  3     2.8128200199e-03
 3  1  1     2.8128200199e-03
 3  1  2     4.3273870279e-03
 3  1  3     3.0348083865e-03
 3  2  1     4.3273870279e-03
 3  2  2     2.8128200199e-03
 3  2  3     3.0348083865e-03
 3  3  1     2.8128200199e-03
 3  3  2     2.8128200199e-03
 3  3  3     2.1449047088e-04

   29
0.0000000000e+00 0.0000000000e+00 0.0000000000e+00
0.0000000000e+00 0.0000000000e+00 0.0000000000e+00
     1      2      2
 1  1  1     2.1426368236e-04
 1  1  2    -2.9070897561e-03
 1  1  3    -2.9070897561e-03
 1  2  1    -2.9070897561e-03
 1  2  2    -2.6415153962e-03
 1  2  3    -4.1063482597e-03
 1  3  1    -2.9070897561e-03
 1  3  2    -4.1063482597e-03
 1  3  3    -2.6415153962e-03
 2  1  1    -2.6415153962e-03
 2  1  2    -2.9070897561e-03
 2  1  3    -4.1063482597e-03
 2  2  1    -2.9070897561e-03
 2  2  2     2.1426368236e-04
 2  2  3    -2.9070897561e-03
 2  3  1    -4.1063482597e-03
 2  3  2    -2.9070897561e-03
 2  3  3    -2.6415153962e-03
 3  1  1    -2.6415153962e-03
 3  1  2    -4.1063482597e-03
 3  1  3    -2.9070897561e-03
 3  2  1    -4.1063482597e-03
 3  2  2    -2.6415153962e-03
 3  2  3    -2.9070897561e-03
 3  3  1    -2.9070897561e-03
 3  3  2    -2.9070897561e-03
 3  3  3     2.1426368236e-04

   30
0.0000000000e+00 0.0000000000e+00 0.0000000000e+00
0.0000000000e+00 2.8270747338e+00 2.8270747338e+00
     1      2      1
 1  1  1    -3.7235768977e-05
 1  1  2    -5.9356592100e-05
 1  1  3    -5.9356592100e-05
 1  2  1    -6.5277589895e-05
 1  2  2    -2.4998395182e-04
 1  2  3    -7.6856150298e-06
 1  3  1    -6.5277589895e-05
 1  3  2    -7.6856150298e-06
 1  3  3    -2.4998395182e-04
 2  1  1     2.8677125613e-04
 2  1  2     5.0433481872e-05
 2  1  3     1.0500452235e-04
 2  2  1    -2.7108856385e-04
 2  2  2    -3.7086031217e-04
 2  2  3     4.0693099653e-05
 2  3  1    -2.6704138489e-05
 2  3  2     4.3958829831e-05
 2  3  3    -1.4061479742e-04
 3  1  1     2.8677125613e-04
 3  1  2     1.0500452235e-04
 3  1  3     5.0433481872e-05
 3  2  1    -2.6704138489e-05
 3  2  2    -1.4061479742e-04
 3  2  3     4.3958829831e-05
 3  3  1    -2.7108856385e-04
 3  3  2     4.0693099653e-05
 3  3  3    -3.7086031217e-04

   31
0.0000000000e+00 0.0000000000e+00 0.0000000000e+00
0.0000000000e+00 -2.8270747338e+00 -2.8270747338e+00
     1      2      2
 1  1  1     1.6285914426e-04
 1  1  2     2.1541001103e-04
 1  1  3     2.1541001103e-04
 1  2  1    -3.7827109891e-04
 1  2  2    -1.4366906955e-04
 1  2  3    -3.4812927950e-04
 1  3  1    -3.7827109891e-04
 1  3  2    -3.4812927950e-04
 1  3  3    -1.4366906955e-04
 2  1  1     2.0062248944e-04
 2  1  2     2.9342976058e-04
 2  1  3     2.7958926289e-05
 2  2  1     2.8896617905e-04
 2  2  2     9.3671547928e-05
 2  2  3    -1.2035439783e-04
 2  3  1     2.8516816128e-05
 2  3  2    -7.1992013492e-05
 2  3  3    -1.2443055687e-04
 3  1  1     2.0062248944e-04
 3  1  2     2.7958926289e-05
 3  1  3     2.9342976058e-04
 3  2  1     2.8516816128e-05
 3  2  2    -1.2443055687e-04
 3  2  3    -7.1992013492e-05
 3  3  1     2.8896617905e-04
 3  3  2    -1.2035439783e-04
 3  3  3     9.3671547928e-05

   32
0.0000000000e+00 0.0000000000e+00 0.0000000000e+00
2.8270747338e+00 0.0000000000e+00 2.8270747338e+00
     1      2      1
 1  1  1    -3.7086031217e-04
 1  1  2    -2.7108856385e-04
 1  1  3     4.0693099653e-05
 1  2  1     5.0433481872e-05
 1  2  2     2.8677125613e-04
 1  2  3     1.0500452235e-04
 1  3  1     4.3958829831e-05
 1  3  2    -2.6704138489e-05
 1  3  3    -1.4061479742e-04
 2  1  1    -2.4998395182e-04
 2  1  2    -6.5277589895e-05
 2  1  3    -7.6856150298e-06
 2  2  1    -5.9356592100e-05
 2  2  2    -3.7235768977e-05
 2  2  3    -5.9356592100e-05
 2  3  1    -7.6856150298e-06
 2  3  2    -6.5277589895e-05
 2  3  3    -2.4998395182e-04
 3  1  1    -1.4061479742e-04
 3  1  2    -2.6704138489e-05
 3  1  3     4.3958829831e-05
 3  2  1     1.0500452235e-04