  54   54
   1   1
     6.300812063828057     0.000000000000000     0.000000000000000
     0.000000000000000     6.300812063828046     0.000000000000000
     0.000000000000000     0.000000000000000     6.300812063828048
   1   2
    -0.000534029694758     0.000000000000000    -0.000000000000000
     0.000000000000000    -0.211925776283829    -0.212577336029928
     0.000000000000000    -0.212577336029928    -0.211925776283829
   1   3
    -0.000534029694758    -0.000000000000000     0.000000000000000
     0.000000000000000    -0.211925776283829    -0.212577336029928
     0.000000000000000    -0.212577336029928    -0.211925776283829
   1   4
    -0.211925776283829    -0.000000000000000    -0.212577336029928
    -0.000000000000000    -0.000534029694758    -0.000000000000000
    -0.212577336029928    -0.000000000000000    -0.211925776283829
   1   5
     0.000900191453988    -0.001598476161460     0.001598476161460
    -0.001598476161460     0.000900191453988     0.001598476161460
     0.001598476161460     0.001598476161460     0.000900191453989
   1   6
    -0.211925776283829     0.212577336029928    -0.000000000000000
     0.212577336029928    -0.211925776283829     0.000000000000000
     0.000000000000000    -0.000000000000000    -0.000534029694758
   1   7
    -0.211925776283829    -0.000000000000000    -0.212577336029928
    -0.000000000000000    -0.000534029694758    -0.000000000000000
    -0.212577336029928    -0.000000000000000    -0.211925776283829
   1   8
    -0.211925776283829     0.212577336029928    -0.000000000000000
     0.212577336029928    -0.211925776283829     0.000000000000000
     0.000000000000000    -0.000000000000000    -0.000534029694758
   1   9
     0.000900191453988    -0.001598476161460     0.001598476161460
    -0.001598476161460     0.000900191453989     0.001598476161460
     0.001598476161460     0.001598476161460     0.000900191453989
   1  10
    -0.211925776283829    -0.212577336029928    -0.000000000000000
    -0.212577336029928    -0.211925776283829    -0.000000000000000
    -0.000000000000000    -0.000000000000000    -0.000534029694758
   1  11
     0.000900191453988     0.001598476161460    -0.001598476161460
     0.001598476161460     0.000900191453989     0.001598476161460
    -0.001598476161460     0.001598476161460     0.000900191453989
   1  12
    -0.211925776283829    -0.000000000000000     0.212577336029928
    -0.000000000000000    -0.000534029694758     0.000000000000000
     0.212577336029928     0.000000000000000    -0.211925776283829
   1  13
     0.000900191453988     0.001598476161460     0.001598476161460
     0.001598476161460     0.000900191453989    -0.001598476161460
     0.001598476161460    -0.001598476161460     0.000900191453989
   1  14
     0.000900191453989    -0.001598476161460    -0.001598476161460
    -0.001598476161460     0.000900191453989    -0.001598476161460
    -0.001598476161460    -0.001598476161460     0.000900191453989
   1  15
     0.116525209261726     0.000000000000000    -0.000000000000000
    -0.000000000000000    -0.006317969889011    -0.000000000000000
    -0.000000000000000    -0.000000000000000    -0.006317969889011
   1  16
    -0.000534029694758    -0.000000000000000    -0.000000000000000
     0.000000000000000    -0.211925776283829     0.212577336029928
    -0.000000000000000     0.212577336029928    -0.211925776283829
   1  17
    -0.006317969889011     0.000000000000000    -0.000000000000000
    -0.000000000000000     0.116525209261726    -0.000000000000000
    -0.000000000000000     0.000000000000000    -0.006317969889011
   1  18
    -0.006317969889011    -0.000000000000000    -0.000000000000000
    -0.000000000000000    -0.006317969889010    -0.000000000000000
     0.000000000000000    -0.000000000000000     0.116525209261726
   1  19
    -0.211925776283829    -0.212577336029928    -0.000000000000000
    -0.212577336029928    -0.211925776283829    -0.000000000000000
    -0.000000000000000    -0.000000000000000    -0.000534029694758
   1  20
    -0.211925776283829    -0.000000000000000     0.212577336029928
    -0.000000000000000    -0.000534029694758     0.000000000000000
     0.212577336029928     0.000000000000000    -0.211925776283829
   1  21
     0.000900191453988     0.001598476161460    -0.001598476161460
     0.001598476161460     0.000900191453989     0.001598476161460
    -0.001598476161460     0.001598476161460     0.000900191453989
   1  22
    -0.000534029694758     0.000000000000000    -0.000000000000000
     0.000000000000000    -0.211925776283829     0.212577336029928
    -0.000000000000000     0.212577336029928    -0.211925776283829
   1  23
    -0.006317969889011    -0.000000000000000    -0.000000000000000
    -0.000000000000000    -0.006317969889010    -0.000000000000000
    -0.000000000000000    -0.000000000000000     0.116525209261726
   1  24
    -0.006317969889011     0.000000000000000    -0.000000000000000
    -0.000000000000000     0.116525209261726    -0.000000000000000
    -0.000000000000000     0.000000000000000    -0.006317969889011
   1  25
     0.000900191453988     0.001598476161460     0.001598476161460
     0.001598476161460     0.000900191453989    -0.001598476161460
     0.001598476161460    -0.001598476161460     0.000900191453989
   1  26
     0.116525209261726     0.000000000000000    -0.000000000000000
    -0.000000000000000    -0.006317969889010    -0.000000000000000
    -0.000000000000000    -0.000000000000000    -0.006317969889011
   1  27
     0.000900191453989    -0.001598476161460    -0.001598476161460
    -0.001598476161460     0.000900191453989    -0.001598476161460
    -0.001598476161460    -0.001598476161460     0.000900191453989
   1  28
     0.042979931368963     0.044323312440980     0.044323312440980
     0.044323312440980     0.042979931368963     0.044323312440980
     0.044323312440980     0.044323312440980     0.042979931368963
   1  29
     0.042979931368963    -0.044323312440980    -0.044323312440980
    -0.044323312440980     0.042979931368963     0.044323312440980
    -0.044323312440980     0.044323312440980     0.042979931368963
   1  30
    -2.074466287273646     0.000000000000000    -0.000000000000000
    -0.000000000000000    -0.249560536709829    -0.000000000000000
     0.000000000000000    -0.000000000000000    -0.249560536709829
   1  31
     0.042979931368963    -0.044323312440980     0.044323312440980
    -0.044323312440980     0.042979931368963    -0.044323312440980
     0.044323312440980    -0.044323312440980     0.042979931368963
   1  32
    -0.002325311974780     0.003724373548289     0.000000000000000
     0.003724373548289    -0.002325311974779     0.000000000000000
     0.000000000000000     0.000000000000000     0.001576519448338
   1  33
    -0.002325311974779    -0.000000000000000    -0.003724373548289
     0.000000000000000     0.001576519448338    -0.000000000000000
    -0.003724373548289    -0.000000000000000    -0.002325311974779
   1  34
    -0.249560536709829    -0.000000000000000    -0.000000000000000
    -0.000000000000000    -2.074466287273646    -0.000000000000000
     0.000000000000000    -0.000000000000000    -0.249560536709829
   1  35
     0.001576519448338    -0.000000000000000     0.000000000000000
    -0.000000000000000    -0.002325311974779    -0.003724373548289
     0.000000000000000    -0.003724373548289    -0.002325311974779
   1  36
    -0.249560536709829    -0.000000000000000    -0.000000000000000
    -0.000000000000000    -0.249560536709829    -0.000000000000000
    -0.000000000000000    -0.000000000000000    -2.074466287273646
   1  37
     0.042979931368963     0.044323312440980    -0.044323312440980
     0.044323312440980     0.042979931368963    -0.044323312440980
    -0.044323312440980    -0.044323312440980     0.042979931368963
   1  38
    -0.002325311974779     0.000000000000000     0.003724373548289
     0.000000000000000     0.001576519448338     0.000000000000000
     0.003724373548289     0.000000000000000    -0.002325311974779
   1  39
    -0.002325311974779    -0.003724373548289    -0.000000000000000
    -0.003724373548289    -0.002325311974779     0.000000000000000
    -0.000000000000000     0.000000000000000     0.001576519448338
   1  40
     0.001576519448338    -0.000000000000000    -0.000000000000000
     0.000000000000000    -0.002325311974779     0.003724373548289
    -0.000000000000000     0.003724373548289    -0.002325311974779
   1  41
    -0.002618116937918    -0.000000000000000     0.000000000000000
    -0.000000000000000    -0.002618116937917    -0.000000000000000
    -0.000000000000000    -0.000000000000000    -0.002618116937917
   1  42
     0.001576519448338    -0.000000000000000    -0.000000000000000
     0.000000000000000    -0.002325311974779     0.003724373548289
    -0.000000000000000     0.003724373548289    -0.002325311974779
   1  43
    -0.002325311974779    -0.003724373548289    -0.000000000000000
    -0.003724373548289    -0.002325311974779     0.000000000000000
    -0.000000000000000     0.000000000000000     0.001576519448338
   1  44
    -0.002325311974779    -0.000000000000000     0.003724373548289
     0.000000000000000     0.001576519448338     0.000000000000000
     0.003724373548289     0.000000000000000    -0.002325311974779
   1  45
     0.042979931368963     0.044323312440980    -0.044323312440980
     0.044323312440980     0.042979931368963    -0.044323312440980
    -0.044323312440980    -0.044323312440980     0.042979931368963
   1  46
    -0.249560536709829    -0.000000000000000     0.000000000000000
    -0.000000000000000    -0.249560536709829    -0.000000000000000
    -0.000000000000000    -0.000000000000000    -2.074466287273646
   1  47
     0.001576519448338    -0.000000000000000     0.000000000000000
    -0.000000000000000    -0.002325311974779    -0.003724373548289
     0.000000000000000    -0.003724373548289    -0.002325311974779
   1  48
    -0.249560536709829    -0.000000000000000     0.000000000000000
    -0.000000000000000    -2.074466287273646    -0.000000000000000
     0.000000000000000    -0.000000000000000    -0.249560536709829
   1  49
    -0.002325311974779     0.000000000000000    -0.003724373548289
     0.000000000000000     0.001576519448338    -0.000000000000000
    -0.003724373548289    -0.000000000000000    -0.002325311974779
   1  50
    -0.002325311974779     0.003724373548289     0.000000000000000
     0.003724373548289    -0.002325311974779     0.000000000000000
     0.000000000000000     0.000000000000000     0.001576519448338
   1  51
     0.042979931368963    -0.044323312440980     0.044323312440980
    -0.044323312440980     0.042979931368963    -0.044323312440980
     0.044323312440980    -0.044323312440980     0.042979931368963
   1  52
    -2.074466287273646     0.000000000000000    -0.000000000000000
    -0.000000000000000    -0.249560536709829    -0.000000000000000
     0.000000000000000    -0.000000000000000    -0.249560536709829
   1  53
     0.042979931368963    -0.044323312440980    -0.044323312440980
    -0.044323312440980     0.042979931368963     0.044323312440980
    -0.044323312440980     0.044323312440980     0.042979931368963
   1  54
     0.042979931368963     0.044323312440980     0.044323312440980
     0.044323312440980     0.042979931368963     0.044323312440980
     0.044323312440980     0.044323312440980     0.042979931368963
   2   1
    -0.000534029694758     0.000000000000000     0.000000000000000
     0.000000000000000    -0.211925776283829    -0.212577336029928
    -0.000000000000000    -0.212577336029928    -0.211925776283829
   2   2
     6.300812063828046    -0.000000000000000    -0.000000000000000
    -0.000000000000000     6.300812063828048     0.000000000000000
    -0.000000000000000     0.000000000000000     6.300812063828056
   2   3
    -0.000534029694758     0.000000000000000     0.000000000000000
     0.000000000000000    -0.211925776283829    -0.212577336029928
     0.000000000000000    -0.212577336029928    -0.211925776283829
   2   4
    -0.211925776283829     0.212577336029928    -0.000000000000000
     0.212577336029928    -0.211925776283829     0.000000000000000
     0.000000000000000    -0.000000000000000    -0.000534029694758
   2   5
    -0.211925776283829     0.000000000000000    -0.212577336029928
    -0.000000000000000    -0.000534029694758    -0.000000000000000
    -0.212577336029928    -0.000000000000000    -0.211925776283829
   2   6
     0.000900191453989    -0.001598476161460     0.001598476161460
    -0.001598476161460     0.000900191453988     0.001598476161460
     0.001598476161460     0.001598476161460     0.000900191453989
   2   7
     0.000900191453989    -0.001598476161460     0.001598476161460
    -0.001598476161460     0.000900191453989     0.001598476161460
     0.001598476161460     0.001598476161460     0.000900191453988
   2   8
    -0.211925776283829     0.000000000000000    -0.212577336029928
    -0.000000000000000    -0.000534029694758    -0.000000000000000
    -0.212577336029928    -0.000000000000000    -0.211925776283829
   2   9
    -0.211925776283829     0.212577336029928     0.000000000000000
     0.212577336029928    -0.211925776283829    -0.000000000000000
     0.000000000000000    -0.000000000000000    -0.000534029694758
   2  10
    -0.211925776283829    -0.000000000000000     0.212577336029928
     0.000000000000000    -0.000534029694758    -0.000000000000000
     0.212577336029928     0.000000000000000    -0.211925776283829
   2  11
    -0.211925776283829    -0.212577336029928     0.000000000000000
    -0.212577336029928    -0.211925776283829     0.000000000000000
    -0.000000000000000    -0.000000000000000    -0.000534029694758
   2  12
     0.000900191453989     0.001598476161460    -0.001598476161460
     0.001598476161460     0.000900191453989     0.001598476161460
    -0.001598476161460     0.001598476161460     0.000900191453988
   2  13
     0.116525209261726     0.000000000000000     0.000000000000000
    -0.000000000000000    -0.006317969889011    -0.000000000000000
     0.000000000000000    -0.000000000000000    -0.006317969889011
   2  14
     0.000900191453989     0.001598476161460     0.001598476161460
     0.001598476161460     0.000900191453988    -0.001598476161460
     0.001598476161460    -0.001598476161460     0.000900191453988
   2  15
     0.000900191453989    -0.001598476161460    -0.001598476161460
    -0.001598476161460     0.000900191453989    -0.001598476161460
    -0.001598476161460    -0.001598476161460     0.000900191453989
   2  16
    -0.006317969889010     0.000000000000000     0.000000000000000
     0.000000000000000    -0.006317969889011     0.000000000000000
    -0.000000000000000    -0.000000000000000     0.116525209261726
   2  17
    -0.000534029694758     0.000000000000000    -0.000000000000000
     0.000000000000000    -0.211925776283829     0.212577336029928
    -0.000000000000000     0.212577336029928    -0.211925776283829
   2  18
    -0.006317969889010    -0.000000000000000    -0.000000000000000
     0.000000000000000     0.116525209261727    -0.000000000000000
    -0.000000000000000    -0.000000000000000    -0.006317969889011
   2  19
     0.000900191453989     0.001598476161460    -0.001598476161460
     0.001598476161460     0.000900191453989     0.001598476161460
    -0.001598476161460     0.001598476161460     0.000900191453989
   2  20
    -0.211925776283829    -0.212577336029928     0.000000000000000
    -0.212577336029928    -0.211925776283829     0.000000000000000
    -0.000000000000000    -0.000000000000000    -0.000534029694758
   2  21
    -0.211925776283829    -0.000000000000000     0.212577336029928
     0.000000000000000    -0.000534029694758    -0.000000000000000
     0.212577336029928     0.000000000000000    -0.211925776283829
   2  22
    -0.006317969889010     0.000000000000000     0.000000000000000
     0.000000000000000     0.116525209261727     0.000000000000000
    -0.000000000000000    -0.000000000000000    -0.006317969889011
   2  23
    -0.000534029694758     0.000000000000000    -0.000000000000000
     0.000000000000000    -0.211925776283829     0.212577336029928
    -0.000000000000000     0.212577336029928    -0.211925776283829
   2  24
    -0.006317969889010     0.000000000000000     0.000000000000000
     0.000000000000000    -0.006317969889011     0.000000000000000
     0.000000000000000    -0.000000000000000     0.116525209261726
   2  25
     0.000900191453989    -0.001598476161460    -0.001598476161460
    -0.001598476161460     0.000900191453989    -0.001598476161460
    -0.001598476161460    -0.001598476161460     0.000900191453989
   2  26
     0.000900191453989     0.001598476161460     0.001598476161460
     0.001598476161460     0.000900191453989    -0.001598476161460
     0.001598476161460    -0.001598476161460     0.000900191453988
   2  27
     0.116525209261727     0.000000000000000     0.000000000000000
     0.000000000000000    -0.006317969889011     0.000000000000000
    -0.000000000000000    -0.000000000000000    -0.006317969889011
   2  28
    -2.074466287273646    -0.000000000000000    -0.000000000000000
     0.000000000000000    -0.249560536709829    -0.000000000000000
    -0.000000000000000    -0.000000000000000    -0.249560536709829
   2  29
     0.042979931368963     0.044323312440980     0.044323312440980
     0.044323312440980     0.042979931368963     0.044323312440980
     0.044323312440980     0.044323312440980     0.042979931368963
   2  30
     0.042979931368963    -0.044323312440980    -0.044323312440980
    -0.044323312440980     0.042979931368963     0.044323312440980
    -0.044323312440980     0.044323312440980     0.042979931368963
   2  31
    -0.002325311974779    -0.000000000000000    -0.003724373548289
    -0.000000000000000     0.001576519448338    -0.000000000000000
    -0.003724373548289     0.000000000000000    -0.002325311974779
   2  32
     0.042979931368963    -0.044323312440980     0.044323312440980
    -0.044323312440980     0.042979931368963    -0.044323312440980
     0.044323312440980    -0.044323312440980     0.042979931368963
   2  33
    -0.002325311974779     0.003724373548289     0.000000000000000
     0.003724373548289    -0.002325311974779    -0.000000000000000
    -0.000000000000000    -0.000000000000000     0.001576519448338
   2  34
    -0.249560536709829    -0.000000000000000    -0.000000000000000
     0.000000000000000    -0.249560536709829    -0.000000000000000
     0.000000000000000    -0.000000000000000    -2.074466287273647
   2  35
    -0.249560536709829     0.000000000000000     0.000000000000000
    -0.000000000000000    -2.074466287273647    -0.000000000000000
     0.000000000000000    -0.000000000000000    -0.249560536709829
   2  36
     0.001576519448339     0.000000000000000     0.000000000000000
     0.000000000000000    -0.002325311974779    -0.003724373548289
    -0.000000000000000    -0.003724373548289    -0.002325311974779
   2  37
    -0.002325311974779    -0.003724373548289     0.000000000000000
    -0.003724373548289    -0.002325311974779     0.000000000000000
     0.000000000000000     0.000000000000000     0.001576519448338
   2  38
     0.042979931368963     0.044323312440980    -0.044323312440980
     0.044323312440980     0.042979931368963    -0.044323312440980
    -0.044323312440980    -0.044323312440980     0.042979931368963
   2  39
    -0.002325311974779    -0.000000000000000     0.003724373548289
     0.000000000000000     0.001576519448338     0.000000000000000
     0.003724373548289    -0.000000000000000    -0.002325311974780
   2  40
     0.001576519448338     0.000000000000000    -0.000000000000000
     0.000000000000000    -0.002325311974779     0.003724373548289
    -0.000000000000000     0.003724373548289    -0.002325311974779
   2  41
     0.001576519448338     0.000000000000000     0.000000000000000
     0.000000000000000    -0.002325311974779     0.003724373548289
    -0.000000000000000     0.003724373548289    -0.002325311974779
   2  42
    -0.002618116937917     0.000000000000000    -0.000000000000000
     0.000000000000000    -0.002618116937917     0.000000000000000
    -0.000000000000000     0.000000000000000    -0.002618116937917
   2  43
     0.042979931368963     0.044323312440980    -0.044323312440980
     0.044323312440980     0.042979931368963    -0.044323312440980
    -0.044323312440980    -0.044323312440980     0.042979931368963
   2  44
    -0.002325311974779    -0.003724373548289     0.000000000000000
    -0.003724373548289    -0.002325311974779     0.000000000000000
     0.000000000000000     0.000000000000000     0.001576519448338
   2  45
    -0.002325311974779     0.000000000000000     0.003724373548289
     0.000000000000000     0.001576519448338     0.000000000000000
     0.003724373548289     0.000000000000000    -0.002325311974779
   2  46
    -0.249560536709829     0.000000000000000    -0.000000000000000
     0.000000000000000    -2.074466287273646    -0.000000000000000
    -0.000000000000000    -0.000000000000000    -0.249560536709829
   2  47
    -0.249560536709829     0.000000000000000    -0.000000000000000
     0.000000000000000    -0.249560536709829    -0.000000000000000
     0.000000000000000    -0.000000000000000    -2.074466287273646
   2  48
     0.001576519448338    -0.000000000000000     0.000000000000000
    -0.000000000000000    -0.002325311974779    -0.003724373548289
     0.000000000000000    -0.003724373548289    -0.002325311974780
   2  49
     0.042979931368963    -0.044323312440980     0.044323312440980
    -0.044323312440980     0.042979931368963    -0.044323312440980
     0.044323312440980    -0.044323312440980     0.042979931368963
   2  50
    -0.002325311974779     0.000000000000000    -0.003724373548289
     0.000000000000000     0.001576519448339     0.000000000000000
    -0.003724373548289     0.000000000000000    -0.002325311974780
   2  51
    -0.002325311974779     0.003724373548289     0.000000000000000
     0.003724373548289    -0.002325311974779     0.000000000000000
    -0.000000000000000    -0.000000000000000     0.001576519448338
   2  52
     0.042979931368963     0.044323312440980     0.044323312440980
     0.044323312440980     0.042979931368963     0.044323312440980
     0.044323312440980     0.044323312440980     0.042979931368963
   2  53
    -2.074466287273647     0.000000000000000     0.000000000000000
     0.000000000000000    -0.249560536709829    -0.000000000000000
     0.000000000000000    -0.000000000000000    -0.249560536709829
   2  54
     0.042979931368963    -0.044323312440980    -0.044323312440980
    -0.044323312440980     0.042979931368963     0.044323312440980
    -0.044323312440980     0.044323312440980     0.042979931368963
   3   1
    -0.000534029694758     0.000000000000000     0.000000000000000
    -0.000000000000000    -0.211925776283829    -0.212577336029928
     0.000000000000000    -0.212577336029928    -0.211925776283829
   3   2
    -0.000534029694758     0.000000000000000     0.000000000000000
     0.000000000000000    -0.211925776283829    -0.212577336029928
     0.000000000000000    -0.212577336029928    -0.211925776283829
   3   3
     6.300812063828045    -0.000000000000000    -0.000000000000000
    -0.000000000000000     6.300812063828047     0.000000000000000
    -0.000000000000000     0.000000000000000     6.300812063828058
   3   4
     0.000900191453989    -0.001598476161460     0.001598476161460
    -0.001598476161460     0.000900191453989     0.001598476161460
     0.001598476161460     0.001598476161460     0.000900191453988
   3   5
    -0.211925776283829     0.212577336029928     0.000000000000000
     0.212577336029928    -0.211925776283829    -0.000000000000000
     0.000000000000000    -0.000000000000000    -0.000534029694758
   3   6
    -0.211925776283829     0.000000000000000    -0.212577336029928
    -0.000000000000000    -0.000534029694758    -0.000000000000000
    -0.212577336029928    -0.000000000000000    -0.211925776283829
   3   7
    -0.211925776283829     0.212577336029928    -0.000000000000000
     0.212577336029928    -0.211925776283829     0.000000000000000
     0.000000000000000    -0.000000000000000    -0.000534029694758
   3   8
     0.000900191453989    -0.001598476161460     0.001598476161460
    -0.001598476161460     0.000900191453988     0.001598476161460
     0.001598476161460     0.001598476161460     0.000900191453989
   3   9
    -0.211925776283829     0.000000000000000    -0.212577336029928
    -0.000000000000000    -0.000534029694758    -0.000000000000000
    -0.212577336029928     0.000000000000000    -0.211925776283829
   3  10
     0.000900191453989     0.001598476161460    -0.001598476161460
     0.001598476161460     0.000900191453989     0.001598476161460
    -0.001598476161460     0.001598476161460     0.000900191453989
   3  11
    -0.211925776283829    -0.000000000000000     0.212577336029928
     0.000000000000000    -0.000534029694758    -0.000000000000000
     0.212577336029928     0.000000000000000    -0.211925776283829
   3  12
    -0.211925776283829    -0.212577336029928     0.000000000000000
    -0.212577336029928    -0.211925776283829    -0.000000000000000
    -0.000000000000000    -0.000000000000000    -0.000534029694758
   3  13
     0.000900191453989    -0.001598476161460    -0.001598476161460
    -0.001598476161460     0.000900191453989    -0.001598476161460
    -0.001598476161460    -0.001598476161460     0.000900191453988
   3  14
     0.116525209261727     0.000000000000000     0.000000000000000
     0.000000000000000    -0.006317969889011     0.000000000000000
    -0.000000000000000    -0.000000000000000    -0.006317969889011
   3  15
     0.000900191453989     0.001598476161460     0.001598476161460
     0.001598476161460     0.000900191453989    -0.001598476161460
     0.001598476161460    -0.001598476161460     0.000900191453988
   3  16
    -0.006317969889010     0.000000000000000     0.000000000000000
     0.000000000000000     0.116525209261727     0.000000000000000
    -0.000000000000000    -0.000000000000000    -0.006317969889011
   3  17
    -0.006317969889010     0.000000000000000     0.000000000000000
     0.000000000000000    -0.006317969889011     0.000000000000000
     0.000000000000000    -0.000000000000000     0.116525209261726
   3  18
    -0.000534029694758     0.000000000000000    -0.000000000000000
     0.000000000000000    -0.211925776283829     0.212577336029928
    -0.000000000000000     0.212577336029928    -0.211925776283829
   3  19
    -0.211925776283829    -0.000000000000000     0.212577336029928
     0.000000000000000    -0.000534029694758    -0.000000000000000
     0.212577336029928     0.000000000000000    -0.211925776283829
   3  20
     0.000900191453989     0.001598476161460    -0.001598476161460
     0.001598476161460     0.000900191453989     0.001598476161460
    -0.001598476161460     0.001598476161460     0.000900191453988
   3  21
    -0.211925776283829    -0.212577336029928     0.000000000000000
    -0.212577336029928    -0.211925776283829     0.000000000000000
     0.000000000000000    -0.000000000000000    -0.000534029694758
   3  22
    -0.006317969889010     0.000000000000000     0.000000000000000
     0.000000000000000    -0.006317969889010     0.000000000000000
    -0.000000000000000    -0.000000000000000     0.116525209261726
   3  23
    -0.006317969889010    -0.000000000000000    -0.000000000000000
     0.000000000000000     0.116525209261727    -0.000000000000000
    -0.000000000000000    -0.000000000000000    -0.006317969889011
   3  24
    -0.000534029694758     0.000000000000000    -0.000000000000000
     0.000000000000000    -0.211925776283829     0.212577336029928
    -0.000000000000000     0.212577336029928    -0.211925776283829
   3  25
     0.116525209261726     0.000000000000000     0.000000000000000
    -0.000000000000000    -0.006317969889011    -0.000000000000000
     0.000000000000000    -0.000000000000000    -0.006317969889011
   3  26
     0.000900191453989    -0.001598476161460    -0.001598476161460
    -0.001598476161460     0.000900191453989    -0.001598476161460
    -0.001598476161460    -0.001598476161460     0.000900191453988
   3  27
     0.000900191453989     0.001598476161460     0.001598476161460
     0.001598476161460     0.000900191453989    -0.001598476161460
     0.001598476161460    -0.001598476161460     0.000900191453989
   3  28
     0.042979931368963    -0.044323312440980    -0.044323312440980
    -0.044323312440980     0.042979931368963     0.044323312440980
    -0.044323312440980     0.044323312440980     0.042979931368963
   3  29
    -2.074466287273647     0.000000000000000     0.000000000000000
     0.000000000000000    -0.249560536709829    -0.000000000000000
     0.000000000000000    -0.000000000000000    -0.249560536709829
   3  30
     0.042979931368963     0.044323312440980     0.044323312440980
     0.044323312440980     0.042979931368963     0.044323312440980
     0.044323312440980     0.044323312440980     0.042979931368963
   3  31
    -0.002325311974779     0.003724373548289     0.000000000000000
     0.003724373548289    -0.002325311974779    -0.000000000000000
    -0.000000000000000     0.000000000000000     0.001576519448338
   3  32
    -0.002325311974779     0.000000000000000    -0.003724373548289
     0.000000000000000     0.001576519448339     0.000000000000000
    -0.003724373548289     0.000000000000000    -0.002325311974779
   3  33
     0.042979931368963    -0.044323312440980     0.044323312440980
    -0.044323312440980     0.042979931368963    -0.044323312440980
     0.044323312440980    -0.044323312440980     0.042979931368963
   3  34
     0.001576519448339    -0.000000000000000     0.000000000000000
    -0.000000000000000    -0.002325311974779    -0.003724373548289
     0.000000000000000    -0.003724373548289    -0.002325311974780
   3  35
    -0.249560536709829     0.000000000000000    -0.000000000000000
     0.000000000000000    -0.249560536709829    -0.000000000000000