54   
2    

1    
  0.0000000000000000   0.0212132034355964   0.0212132034355964
  -0.0000000000   -0.1336604079   -0.1336604079
  -0.0000000000    0.0093416328    0.0093416328
  -0.0000000000    0.0086771721    0.0086771721
   0.0045819839   -0.0000227182    0.0045336937
  -0.0000004850   -0.0000533586   -0.0000526477
  -0.0044329831    0.0044528188    0.0000453756
   0.0044329831    0.0000453756    0.0044528188
  -0.0045819839    0.0045336937   -0.0000227182
   0.0000004850   -0.0000526477   -0.0000533586
   0.0045819839    0.0045336937   -0.0000227182
  -0.0000004850   -0.0000526477   -0.0000533586
  -0.0044329831    0.0000453756    0.0044528188
  -0.0000675200    0.0000147761    0.0000147761
   0.0000681207    0.0000148473    0.0000148473
   0.0000099155    0.0001339247    0.0001339247
  -0.0000000000   -0.0000471414    0.0000203101
   0.0000000000   -0.0025052071    0.0001447144
  -0.0000000000    0.0001235346   -0.0024385384
   0.0044329831    0.0044528188    0.0000453756
  -0.0045819839   -0.0000227182    0.0045336937
   0.0000004850   -0.0000533586   -0.0000526477
  -0.0000000000    0.0000203101   -0.0000471414
  -0.0000000000    0.0001447144   -0.0025052071
   0.0000000000   -0.0024385384    0.0001235346
  -0.0000681207    0.0000148473    0.0000148473
  -0.0000099155    0.0001339247    0.0001339247
   0.0000675200    0.0000147761    0.0000147761
  -0.0035766460   -0.0035255317   -0.0035255317
   0.0001970058   -0.0001720817   -0.0001720817
  -0.0002901395    0.0053088765    0.0053088765
  -0.0000006937    0.0000264998    0.0000241493
  -0.0000796248    0.0000491344   -0.0000340928
   0.0000783841   -0.0000327901    0.0000495170
   0.0000000000    0.0473960512    0.0049881105
   0.0000000000    0.0001286241    0.0001280223
   0.0000000000    0.0055700537    0.0406161017
  -0.0000006937    0.0000241493    0.0000264998
  -0.0000796248   -0.0000340928    0.0000491344
   0.0000783841    0.0000495170   -0.0000327901
   0.0000000000   -0.0000302156   -0.0000302156
   0.0000000000    0.0000555384    0.0000555384
   0.0000000000   -0.0000291400   -0.0000291400
   0.0000796248    0.0000491344   -0.0000340928
  -0.0000783841   -0.0000327901    0.0000495170
   0.0000006937    0.0000264998    0.0000241493
   0.0000000000    0.0049881105    0.0473960512
   0.0000000000    0.0001280223    0.0001286241
   0.0000000000    0.0406161017    0.0055700537
   0.0000796248   -0.0000340928    0.0000491344
  -0.0000783841    0.0000495170   -0.0000327901
   0.0000006937    0.0000241493    0.0000264998
   0.0002901395    0.0053088765    0.0053088765
   0.0035766460   -0.0035255317   -0.0035255317
  -0.0001970058   -0.0001720817   -0.0001720817

28   
  0.0000000000000000   0.0212132034355964   0.0212132034355964
  -0.0001969801   -0.0001723744   -0.0001723744
   0.0002896743    0.0053088730    0.0053088730
   0.0035766772   -0.0035252413   -0.0035252413
  -0.0000000000    0.0406155844    0.0055698094
  -0.0000000000    0.0049883549    0.0473965642
  -0.0000000000    0.0001278736    0.0001287949
   0.0000009545    0.0000238779    0.0000267659
   0.0000791815   -0.0000340579    0.0000495404
  -0.0000788431    0.0000491255   -0.0000328313
  -0.0000000000    0.0055698094    0.0406155844
  -0.0000000000    0.0473965642    0.0049883549
  -0.0000000000    0.0001287949    0.0001278736
  -0.0002896743    0.0053088730    0.0053088730
  -0.0035766772   -0.0035252413   -0.0035252413
   0.0001969801   -0.0001723744   -0.0001723744
   0.0000788431   -0.0000328313    0.0000491255
  -0.0000009545    0.0000267659    0.0000238779
  -0.0000791815    0.0000495404   -0.0000340579
   0.0000009545    0.0000267659    0.0000238779
   0.0000791815    0.0000495404   -0.0000340579
  -0.0000788431   -0.0000328313    0.0000491255
   0.0000788431    0.0000491255   -0.0000328313
  -0.0000009545    0.0000238779    0.0000267659
  -0.0000791815   -0.0000340579    0.0000495404
  -0.0000000000   -0.0000295472   -0.0000295472
   0.0000000000   -0.0000298096   -0.0000298096
  -0.0000000000    0.0000555389    0.0000555389
  -0.0000000000   -0.2007982617   -0.2007982617
  -0.0000000000    0.0329080316    0.0329080316
  -0.0000000000    0.0310211191    0.0310211191
   0.0177762919   -0.0033076778    0.0144423108
   0.0000005637   -0.0000059905   -0.0000041467
  -0.0173702645    0.0143005199   -0.0030434850
   0.0173702645   -0.0030434850    0.0143005199
  -0.0177762919    0.0144423108   -0.0033076778
  -0.0000005637   -0.0000041467   -0.0000059905
   0.0177762919    0.0144423108   -0.0033076778
   0.0000005637   -0.0000041467   -0.0000059905
  -0.0173702645   -0.0030434850    0.0143005199
  -0.0000322280    0.0000279426    0.0000279426
   0.0000335669    0.0000276770    0.0000276770
   0.0000152647    0.0006986283    0.0006986283
   0.0000000000   -0.0033307756   -0.0030679326
   0.0000000000   -0.0030483436    0.0007136629
   0.0000000000    0.0006818978   -0.0035614742
   0.0173702645    0.0143005199   -0.0030434850
  -0.0177762919   -0.0033076778    0.0144423108
  -0.0000005637   -0.0000059905   -0.0000041467
   0.0000000000   -0.0030679326   -0.0033307756
   0.0000000000    0.0007136629   -0.0030483436
   0.0000000000   -0.0035614742    0.0006818978
  -0.0000335669    0.0000276770    0.0000276770
  -0.0000152647    0.0006986283    0.0006986283
   0.0000322280    0.0000279426    0.0000279426
