 1046

    1
0.0000000000e+00 0.0000000000e+00 0.0000000000e+00
0.0000000000e+00 0.0000000000e+00 0.0000000000e+00
     1      1      1
 1  1  1     0.0000000000e+00
 1  1  2     0.0000000000e+00
 1  1  3     0.0000000000e+00
 1  2  1     0.0000000000e+00
 1  2  2     0.0000000000e+00
 1  2  3     0.0000000000e+00
 1  3  1     0.0000000000e+00
 1  3  2     0.0000000000e+00
 1  3  3     0.0000000000e+00
 2  1  1     0.0000000000e+00
 2  1  2     0.0000000000e+00
 2  1  3     0.0000000000e+00
 2  2  1     0.0000000000e+00
 2  2  2     0.0000000000e+00
 2  2  3     0.0000000000e+00
 2  3  1     0.0000000000e+00
 2  3  2     0.0000000000e+00
 2  3  3     0.0000000000e+00
 3  1  1     0.0000000000e+00
 3  1  2     0.0000000000e+00
 3  1  3     0.0000000000e+00
 3  2  1     0.0000000000e+00
 3  2  2     0.0000000000e+00
 3  2  3     0.0000000000e+00
 3  3  1     0.0000000000e+00
 3  3  2     0.0000000000e+00
 3  3  3     0.0000000000e+00

    2
0.0000000000e+00 0.0000000000e+00 0.0000000000e+00
0.0000000000e+00 0.0000000000e+00 0.0000000000e+00
     1      1      2
 1  1  1     2.0481872999e-04
 1  1  2     3.2061304233e-03
 1  1  3     3.2061304233e-03
 1  2  1     2.8606286530e-03
 1  2  2     2.8606286530e-03
 1  2  3     4.3273870250e-03
 1  3  1     2.8606286530e-03
 1  3  2     4.3273870250e-03
 1  3  3     2.8606286530e-03
 2  1  1     2.8606286530e-03
 2  1  2     2.8606286530e-03
 2  1  3     4.3273870250e-03
 2  2  1     3.2061304233e-03
 2  2  2     2.0481872999e-04
 2  2  3     3.2061304233e-03
 2  3  1     4.3273870250e-03
 2  3  2     2.8606286530e-03
 2  3  3     2.8606286530e-03
 3  1  1     2.8606286530e-03
 3  1  2     4.3273870250e-03
 3  1  3     2.8606286530e-03
 3  2  1     4.3273870250e-03
 3  2  2     2.8606286530e-03
 3  2  3     2.8606286530e-03
 3  3  1     3.2061304233e-03
 3  3  2     3.2061304233e-03
 3  3  3     2.0481872999e-04

    3
0.0000000000e+00 0.0000000000e+00 0.0000000000e+00
0.0000000000e+00 2.8270747338e+00 2.8270747338e+00
     1      1      1
 1  1  1     0.0000000000e+00
 1  1  2     7.6163130654e-02
 1  1  3     7.6163130654e-02
 1  2  1     7.5511125380e-02
 1  2  2     0.0000000000e+00
 1  2  3     0.0000000000e+00
 1  3  1     7.5511125380e-02
 1  3  2     0.0000000000e+00
 1  3  3     0.0000000000e+00
 2  1  1     7.5511125380e-02
 2  1  2     0.0000000000e+00
 2  1  3     0.0000000000e+00
 2  2  1     0.0000000000e+00
 2  2  2    -2.5579030587e-01
 2  2  3    -4.0707854236e-01
 2  3  1     0.0000000000e+00
 2  3  2    -4.0661153536e-01
 2  3  3    -4.0661153536e-01
 3  1  1     7.5511125380e-02
 3  1  2     0.0000000000e+00
 3  1  3     0.0000000000e+00
 3  2  1     0.0000000000e+00
 3  2  2    -4.0661153536e-01
 3  2  3    -4.0661153536e-01
 3  3  1     0.0000000000e+00
 3  3  2    -4.0707854236e-01
 3  3  3    -2.5579030587e-01

    4
0.0000000000e+00 0.0000000000e+00 0.0000000000e+00
0.0000000000e+00 -5.6541494677e+00 -5.6541494677e+00
     1      1      2
 1  1  1     2.0481872999e-04
 1  1  2    -3.2061304233e-03
 1  1  3    -3.2061304233e-03
 1  2  1    -2.8606286530e-03
 1  2  2     2.8606286530e-03
 1  2  3     4.3273870250e-03
 1  3  1    -2.8606286530e-03
 1  3  2     4.3273870250e-03
 1  3  3     2.8606286530e-03
 2  1  1    -2.8606286530e-03
 2  1  2     2.8606286530e-03
 2  1  3     4.3273870250e-03
 2  2  1     3.2061304233e-03
 2  2  2    -2.0481872999e-04
 2  2  3    -3.2061304233e-03
 2  3  1     4.3273870250e-03
 2  3  2    -2.8606286530e-03
 2  3  3    -2.8606286530e-03
 3  1  1    -2.8606286530e-03
 3  1  2     4.3273870250e-03
 3  1  3     2.8606286530e-03
 3  2  1     4.3273870250e-03
 3  2  2    -2.8606286530e-03
 3  2  3    -2.8606286530e-03
 3  3  1     3.2061304233e-03
 3  3  2    -3.2061304233e-03
 3  3  3    -2.0481872999e-04

    5
0.0000000000e+00 0.0000000000e+00 0.0000000000e+00
0.0000000000e+00 -2.8270747338e+00 -2.8270747338e+00
     1      1      1
 1  1  1     0.0000000000e+00
 1  1  2    -7.6163130654e-02
 1  1  3    -7.6163130654e-02
 1  2  1    -7.5511125380e-02
 1  2  2     0.0000000000e+00
 1  2  3     0.0000000000e+00
 1  3  1    -7.5511125380e-02
 1  3  2     0.0000000000e+00
 1  3  3     0.0000000000e+00
 2  1  1    -7.5511125380e-02
 2  1  2     0.0000000000e+00
 2  1  3     0.0000000000e+00
 2  2  1     0.0000000000e+00
 2  2  2     2.5579030587e-01
 2  2  3     4.0707854236e-01
 2  3  1     0.0000000000e+00
 2  3  2     4.0661153536e-01
 2  3  3     4.0661153536e-01
 3  1  1    -7.5511125380e-02
 3  1  2     0.0000000000e+00
 3  1  3     0.0000000000e+00
 3  2  1     0.0000000000e+00
 3  2  2     4.0661153536e-01
 3  2  3     4.0661153536e-01
 3  3  1     0.0000000000e+00
 3  3  2     4.0707854236e-01
 3  3  3     2.5579030587e-01

    6
0.0000000000e+00 0.0000000000e+00 0.0000000000e+00
0.0000000000e+00 -2.8270747338e+00 -2.8270747338e+00
     1      1      2
 1  1  1    -1.5719024074e+01
 1  1  2     0.0000000000e+00
 1  1  3     0.0000000000e+00
 1  2  1     0.0000000000e+00
 1  2  2     6.4527354623e-01
 1  2  3     0.0000000000e+00
 1  3  1     0.0000000000e+00
 1  3  2     0.0000000000e+00
 1  3  3     6.4527354623e-01
 2  1  1     0.0000000000e+00
 2  1  2     6.4527354623e-01
 2  1  3     0.0000000000e+00
 2  2  1     6.4397882412e-01
 2  2  2     0.0000000000e+00
 2  2  3     0.0000000000e+00
 2  3  1     0.0000000000e+00
 2  3  2     0.0000000000e+00
 2  3  3     0.0000000000e+00
 3  1  1     0.0000000000e+00
 3  1  2     0.0000000000e+00
 3  1  3     6.4527354623e-01
 3  2  1     0.0000000000e+00
 3  2  2     0.0000000000e+00
 3  2  3     0.0000000000e+00
 3  3  1     6.4397882412e-01
 3  3  2     0.0000000000e+00
 3  3  3     0.0000000000e+00

    7
0.0000000000e+00 0.0000000000e+00 0.0000000000e+00
2.8270747338e+00 0.0000000000e+00 2.8270747338e+00
     1      1      1
 1  1  1    -2.5579030587e-01
 1  1  2     0.0000000000e+00
 1  1  3    -4.0707854236e-01
 1  2  1     0.0000000000e+00
 1  2  2     7.5511125380e-02
 1  2  3     0.0000000000e+00
 1  3  1    -4.0661153536e-01
 1  3  2     0.0000000000e+00
 1  3  3    -4.0661153536e-01
 2  1  1     0.0000000000e+00
 2  1  2     7.5511125380e-02
 2  1  3     0.0000000000e+00
 2  2  1     7.6163130654e-02
 2  2  2     0.0000000000e+00
 2  2  3     7.6163130654e-02
 2  3  1     0.0000000000e+00
 2  3  2     7.5511125380e-02
 2  3  3     0.0000000000e+00
 3  1  1    -4.0661153536e-01
 3  1  2     0.0000000000e+00
 3  1  3    -4.0661153536e-01
 3  2  1     0.0000000000e+00
 3  2  2     7.5511125380e-02
 3  2  3     0.0000000000e+00
 3  3  1    -4.0707854236e-01
 3  3  2     0.0000000000e+00
 3  3  3    -2.5579030587e-01

    8
0.0000000000e+00 0.0000000000e+00 0.0000000000e+00
-5.6541494677e+00 0.0000000000e+00 -5.6541494677e+00
     1      1      2
 1  1  1    -2.0481872999e-04
 1  1  2     3.2061304233e-03
 1  1  3    -3.2061304233e-03
 1  2  1     2.8606286530e-03
 1  2  2    -2.8606286530e-03
 1  2  3     4.3273870250e-03
 1  3  1    -2.8606286530e-03
 1  3  2     4.3273870250e-03
 1  3  3    -2.8606286530e-03
 2  1  1     2.8606286530e-03
 2  1  2    -2.8606286530e-03
 2  1  3     4.3273870250e-03
 2  2  1    -3.2061304233e-03
 2  2  2     2.0481872999e-04
 2  2  3    -3.2061304233e-03
 2  3  1     4.3273870250e-03
 2  3  2    -2.8606286530e-03
 2  3  3     2.8606286530e-03
 3  1  1    -2.8606286530e-03
 3  1  2     4.3273870250e-03
 3  1  3    -2.8606286530e-03
 3  2  1     4.3273870250e-03
 3  2  2    -2.8606286530e-03
 3  2  3     2.8606286530e-03
 3  3  1    -3.2061304233e-03
 3  3  2     3.2061304233e-03
 3  3  3    -2.0481872999e-04

    9
0.0000000000e+00 0.0000000000e+00 0.0000000000e+00
2.8270747338e+00 -2.8270747338e+00 -5.5511151231e-16
     1      1      1
 1  1  1    -2.5579030587e-01
 1  1  2     4.0707854236e-01
 1  1  3     0.0000000000e+00
 1  2  1     4.0661153536e-01
 1  2  2    -4.0661153536e-01
 1  2  3     0.0000000000e+00
 1  3  1     0.0000000000e+00
 1  3  2     0.0000000000e+00
 1  3  3     7.5511125380e-02
 2  1  1     4.0661153536e-01
 2  1  2    -4.0661153536e-01
 2  1  3     0.0000000000e+00
 2  2  1    -4.0707854236e-01
 2  2  2     2.5579030587e-01
 2  2  3     0.0000000000e+00
 2  3  1     0.0000000000e+00
 2  3  2     0.0000000000e+00
 2  3  3    -7.5511125380e-02
 3  1  1     0.0000000000e+00
 3  1  2     0.0000000000e+00
 3  1  3     7.5511125380e-02
 3  2  1     0.0000000000e+00
 3  2  2     0.0000000000e+00
 3  2  3    -7.5511125380e-02
 3  3  1     7.6163130654e-02
 3  3  2    -7.6163130654e-02
 3  3  3     0.0000000000e+00

   10
0.0000000000e+00 0.0000000000e+00 0.0000000000e+00
-2.8270747338e+00 0.0000000000e+00 -2.8270747338e+00
     1      1      1
 1  1  1     2.5579030587e-01
 1  1  2     0.0000000000e+00
 1  1  3     4.0707854236e-01
 1  2  1     0.0000000000e+00
 1  2  2    -7.5511125380e-02
 1  2  3     0.0000000000e+00
 1  3  1     4.0661153536e-01
 1  3  2     0.0000000000e+00
 1  3  3     4.0661153536e-01
 2  1  1     0.0000000000e+00
 2  1  2    -7.5511125380e-02
 2  1  3     0.0000000000e+00
 2  2  1    -7.6163130654e-02
 2  2  2     0.0000000000e+00
 2  2  3    -7.6163130654e-02
 2  3  1     0.0000000000e+00
 2  3  2    -7.5511125380e-02
 2  3  3     0.0000000000e+00
 3  1  1     4.0661153536e-01
 3  1  2     0.0000000000e+00
 3  1  3     4.0661153536e-01
 3  2  1     0.0000000000e+00
 3  2  2    -7.5511125380e-02
 3  2  3     0.0000000000e+00
 3  3  1     4.0707854236e-01
 3  3  2     0.0000000000e+00
 3  3  3     2.5579030587e-01

   11
0.0000000000e+00 0.0000000000e+00 0.0000000000e+00
-2.8270747338e+00 0.0000000000e+00 -2.8270747338e+00
     1      1      2
 1  1  1     0.0000000000e+00
 1  1  2     6.4397882412e-01
 1  1  3     0.0000000000e+00
 1  2  1     6.4527354623e-01
 1  2  2     0.0000000000e+00
 1  2  3     0.0000000000e+00
 1  3  1     0.0000000000e+00
 1  3  2     0.0000000000e+00
 1  3  3     0.0000000000e+00
 2  1  1     6.4527354623e-01
 2  1  2     0.0000000000e+00
 2  1  3     0.0000000000e+00
 2  2  1     0.0000000000e+00
 2  2  2    -1.5719024074e+01
 2  2  3     0.0000000000e+00
 2  3  1     0.0000000000e+00
 2  3  2     0.0000000000e+00
 2  3  3     6.4527354623e-01
 3  1  1     0.0000000000e+00
 3  1  2     0.0000000000e+00
 3  1  3     0.0000000000e+00
 3  2  1     0.0000000000e+00
 3  2  2     0.0000000000e+00
 3  2  3     6.4527354623e-01
 3  3  1     0.0000000000e+00
 3  3  2     6.4397882412e-01
 3  3  3     0.0000000000e+00

   12
0.0000000000e+00 0.0000000000e+00 0.0000000000e+00
-2.8270747338e+00 2.8270747338e+00 -5.5511151231e-16
     1      1      1
 1  1  1     2.5579030587e-01
 1  1  2    -4.0707854236e-01
 1  1  3     0.0000000000e+00
 1  2  1    -4.0661153536e-01
 1  2  2     4.0661153536e-01
 1  2  3     0.0000000000e+00
 1  3  1     0.0000000000e+00
 1  3  2     0.0000000000e+00
 1  3  3    -7.5511125380e-02
 2  1  1    -4.0661153536e-01
 2  1  2     4.0661153536e-01
 2  1  3     0.0000000000e+00
 2  2  1     4.0707854236e-01
 2  2  2    -2.5579030587e-01
 2  2  3     0.0000000000e+00
 2  3  1     0.0000000000e+00
 2  3  2     0.0000000000e+00
 2  3  3     7.5511125380e-02
 3  1  1     0.0000000000e+00
 3  1  2     0.0000000000e+00
 3  1  3    -7.5511125380e-02
 3  2  1     0.0000000000e+00
 3  2  2     0.0000000000e+00
 3  2  3     7.5511125380e-02
 3  3  1    -7.6163130654e-02
 3  3  2     7.6163130654e-02
 3  3  3     0.0000000000e+00

   13
0.0000000000e+00 0.0000000000e+00 0.0000000000e+00
-2.8270747338e+00 -2.8270747338e+00 -5.6541494677e+00
     1      1      2
 1  1  1     0.0000000000e+00
 1  1  2     0.0000000000e+00
 1  1  3    -6.4397882412e-01
 1  2  1     0.0000000000e+00
 1  2  2     0.0000000000e+00
 1  2  3     0.0000000000e+00
 1  3  1    -6.4527354623e-01
 1  3  2     0.0000000000e+00
 1  3  3     0.0000000000e+00
 2  1  1     0.0000000000e+00
 2  1  2     0.0000000000e+00
 2  1  3     0.0000000000e+00
 2  2  1     0.0000000000e+00
 2  2  2     0.0000000000e+00
 2  2  3    -6.4397882412e-01
 2  3  1     0.0000000000e+00
 2  3  2    -6.4527354623e-01
 2  3  3     0.0000000000e+00
 3  1  1    -6.4527354623e-01
 3  1  2     0.0000000000e+00
 3  1  3     0.0000000000e+00
 3  2  1     0.0000000000e+00
 3  2  2    -6.4527354623e-01
 3  2  3     0.0000000000e+00
 3  3  1     0.0000000000e+00
 3  3  2     0.0000000000e+00
 3  3  3     1.5719024074e+01

   14
0.0000000000e+00 0.0000000000e+00 0.0000000000e+00
2.8270747338e+00 2.8270747338e+00 0.0000000000e+00
     1      1      1
 1  1  1    -2.5579030587e-01
 1  1  2    -4.0707854236e-01
 1  1  3     0.0000000000e+00
 1  2  1    -4.0661153536e-01
 1  2  2    -4.0661153536e-01
 1  2  3     0.0000000000e+00
 1  3  1     0.0000000000e+00
 1  3  2     0.0000000000e+00
 1  3  3     7.5511125380e-02
 2  1  1    -4.0661153536e-01
 2  1  2    -4.0661153536e-01
 2  1  3     0.0000000000e+00
 2  2  1    -4.0707854236e-01
 2  2  2    -2.5579030587e-01
 2  2  3     0.0000000000e+00
 2  3  1     0.0000000000e+00
 2  3  2     0.0000000000e+00
 2  3  3     7.5511125380e-02
 3  1  1     0.0000000000e+00
 3  1  2     0.0000000000e+00
 3  1  3     7.5511125380e-02
 3  2  1     0.0000000000e+00
 3  2  2     0.0000000000e+00
 3  2  3     7.5511125380e-02
 3  3  1     7.6163130654e-02
 3  3  2     7.6163130654e-02
 3  3  3     0.0000000000e+00

   15
0.0000000000e+00 0.0000000000e+00 0.0000000000e+00
-5.6541494677e+00 -5.6541494677e+00 0.0000000000e+00
     1      1      2
 1  1  1    -2.0481872999e-04
 1  1  2    -3.2061304233e-03
 1  1  3     3.2061304233e-03
 1  2  1    -2.8606286530e-03
 1  2  2    -2.8606286530e-03
 1  2  3     4.3273870250e-03
 1  3  1     2.8606286530e-03
 1  3  2     4.3273870250e-03
 1  3  3    -2.8606286530e-03
 2  1  1    -2.8606286530e-03
 2  1  2    -2.8606286530e-03
 2  1  3     4.3273870250e-03
 2  2  1    -3.2061304233e-03
 2  2  2    -2.0481872999e-04
 2  2  3     3.2061304233e-03
 2  3  1     4.3273870250e-03
 2  3  2     2.8606286530e-03
 2  3  3    -2.8606286530e-03
 3  1  1     2.8606286530e-03
 3  1  2     4.3273870250e-03
 3  1  3    -2.8606286530e-03
 3  2  1     4.3273870250e-03
 3  2  2     2.8606286530e-03
 3  2  3    -2.8606286530e-03
 3  3  1    -3.2061304233e-03
 3  3  2    -3.2061304233e-03
 3  3  3     2.0481872999e-04

   16
0.0000000000e+00 0.0000000000e+00 0.0000000000e+00
2.8270747338e+00 -7.1204568540e-16 -2.8270747338e+00
     1      1      1
 1  1  1    -2.5579030587e-01
 1  1  2     0.0000000000e+00
 1  1  3     4.0707854236e-01
 1  2  1     0.0000000000e+00
 1  2  2     7.5511125380e-02
 1  2  3     0.0000000000e+00
 1  3  1     4.0661153536e-01
 1  3  2     0.0000000000e+00
 1  3  3    -4.0661153536e-01
 2  1  1     0.0000000000e+00
 2  1  2     7.5511125380e-02
 2  1  3     0.0000000000e+00
 2  2  1     7.6163130654e-02
 2  2  2     0.0000000000e+00
 2  2  3    -7.6163130654e-02
 2  3  1     0.0000000000e+00
 2  3  2    -7.5511125380e-02
 2  3  3     0.0000000000e+00
 3  1  1     4.0661153536e-01
 3  1  2     0.0000000000e+00
 3  1  3    -4.0661153536e-01
 3  2  1     0.0000000000e+00
 3  2  2    -7.5511125380e-02
 3  2  3     0.0000000000e+00
 3  3  1    -4.0707854236e-01
 3  3  2     0.0000000000e+00
 3  3  3     2.5579030587e-01

   17
0.0000000000e+00 0.0000000000e+00 0.0000000000e+00
5.6541494677e+00 -7.1204568540e-16 -5.5511151231e-16
     1      1      1
 1  1  1     1.7019002920e-01
 1  1  2     0.0000000000e+00
 1  1  3     0.0000000000e+00
 1  2  1     0.0000000000e+00
 1  2  2    -2.2896864798e-02
 1  2  3     0.0000000000e+00
 1  3  1     0.0000000000e+00
 1  3  2     0.0000000000e+00
 1  3  3    -2.2896864798e-02
 2  1  1     0.0000000000e+00
 2  1  2    -2.2896864798e-02
 2  1  3     0.0000000000e+00
 2  2  1    -2.2596281694e-02
 2  2  2     0.0000000000e+00
 2  2  3     0.0000000000e+00
 2  3  1     0.0000000000e+00
 2  3  2     0.0000000000e+00
 2  3  3     0.0000000000e+00
 3  1  1     0.0000000000e+00
 3  1  2     0.0000000000e+00
 3  1  3    -2.2896864798e-02
 3  2  1     0.0000000000e+00
 3  2  2     0.0000000000e+00
 3  2  3     0.0000000000e+00
 3  3  1    -2.2596281694e-02
 3  3  2     0.0000000000e+00
 3  3  3     0.0000000000e+00

   18
0.0000000000e+00 0.0000000000e+00 0.0000000000e+00
-5.5511151231e-16 2.8270747338e+00 -2.8270747338e+00
     1      1      1
 1  1  1     0.0000000000e+00
 1  1  2     7.6163130654e-02
 1  1  3    -7.6163130654e-02
 1  2  1     7.5511125380e-02
 1  2  2     0.0000000000e+00
 1  2  3     0.0000000000e+00
 1  3  1    -7.5511125380e-02
 1  3  2     0.0000000000e+00
 1  3  3     0.0000000000e+00
 2  1  1     7.5511125380e-02
 2  1  2     0.0000000000e+00
 2  1  3     0.0000000000e+00
 2  2  1     0.0000000000e+00
 2  2  2    -2.5579030587e-01
 2  2  3     4.0707854236e-01
 2  3  1     0.0000000000e+00
 2  3  2     4.0661153536e-01
 2  3  3    -4.0661153536e-01
 3  1  1    -7.5511125380e-02
 3  1  2     0.0000000000e+00
 3  1  3     0.0000000000e+00
 3  2  1     0.0000000000e+00
 3  2  2     4.0661153536e-01
 3  2  3    -4.0661153536e-01
 3  3  1     0.0000000000e+00
 3  3  2    -4.0707854236e-01
 3  3  3     2.5579030587e-01

   19
0.0000000000e+00 0.0000000000e+00 0.0000000000e+00
-5.5511151231e-16 5.6541494677e+00 -5.5511151231e-16
     1      1      1
 1  1  1     0.0000000000e+00
 1  1  2    -2.2596281694e-02
 1  1  3     0.0000000000e+00
 1  2  1    -2.2896864798e-02
 1  2  2     0.0000000000e+00
 1  2  3     0.0000000000e+00
 1  3  1     0.0000000000e+00
 1  3  2     0.0000000000e+00
 1  3  3     0.0000000000e+00
 2  1  1    -2.2896864798e-02
 2  1  2     0.0000000000e+00
 2  1  3     0.0000000000e+00
 2  2  1     0.0000000000e+00
 2  2  2     1.7019002920e-01
 2  2  3     0.0000000000e+00
 2  3  1     0.0000000000e+00
 2  3  2     0.0000000000e+00
 2  3  3    -2.2896864798e-02
 3  1  1     0.0000000000e+00
 3  1  2     0.0000000000e+00
 3  1  3     0.0000000000e+00
 3  2  1     0.0000000000e+00
 3  2  2     0.0000000000e+00
 3  2  3    -2.2896864798e-02
 3  3  1     0.0000000000e+00
 3  3  2    -2.2596281694e-02
 3  3  3     0.0000000000e+00

   20
0.0000000000e+00 0.0000000000e+00 0.0000000000e+00
-5.5511151231e-16 -7.1204568540e-16 -5.6541494677e+00
     1      1      1
 1  1  1     0.0000000000e+00
 1  1  2     0.0000000000e+00
 1  1  3     2.2596281694e-02
 1  2  1     0.0000000000e+00
 1  2  2     0.0000000000e+00
 1  2  3     0.0000000000e+00
 1  3  1     2.2896864798e-02
 1  3  2     0.0000000000e+00
 1  3  3     0.0000000000e+00
 2  1  1     0.0000000000e+00
 2  1  2     0.0000000000e+00
 2  1  3     0.0000000000e+00
 2  2  1     0.0000000000e+00
 2  2  2     0.0000000000e+00
 2  2  3     2.2596281694e-02
 2  3  1     0.0000000000e+00
 2  3  2     2.2896864798e-02
 2  3  3     0.0000000000e+00
 3  1  1     2.2896864798e-02
 3  1  2     0.0000000000e+00
 3  1  3     0.0000000000e+00
 3  2  1     0.0000000000e+00
 3  2  2     2.2896864798e-02
 3  2  3     0.0000000000e+00
 3  3  1     0.0000000000e+00
 3  3  2     0.0000000000e+00
 3  3  3    -1.7019002920e-01

   21
0.0000000000e+00 0.0000000000e+00 0.0000000000e+00
1.1102230246e-15 8.6897985850e-16 -5.6541494677e+00
     1      1      2
 1  1  1     2.0481872999e-04
 1  1  2     3.2061304233e-03
 1  1  3    -3.2061304233e-03
 1  2  1     2.8606286530e-03
 1  2  2     2.8606286530e-03
 1  2  3    -4.3273870250e-03
 1  3  1    -2.8606286530e-03
 1  3  2    -4.3273870250e-03
 1  3  3     2.8606286530e-03
 2  1  1     2.8606286530e-03
 2  1  2     2.8606286530e-03
 2  1  3    -4.3273870250e-03
 2  2  1     3.2061304233e-03
 2  2  2     2.0481872999e-04
 2  2  3    -3.2061304233e-03
 2  3  1    -4.3273870250e-03
 2  3  2    -2.8606286530e-03
 2  3  3     2.8606286530e-03
 3  1  1    -2.8606286530e-03
 3  1  2    -4.3273870250e-03
 3  1  3     2.8606286530e-03
 3  2  1    -4.3273870250e-03
 3  2  2    -2.8606286530e-03
 3  2  3     2.8606286530e-03
 3  3  1     3.2061304233e-03
 3  3  2     3.2061304233e-03
 3  3  3    -2.0481872999e-04

   22
0.0000000000e+00 0.0000000000e+00 0.0000000000e+00
-2.8270747338e+00 -2.8270747338e+00 0.0000000000e+00
     1      1      1
 1  1  1     2.5579030587e-01
 1  1  2     4.0707854236e-01
 1  1  3     0.0000000000e+00
 1  2  1     4.0661153536e-01
 1  2  2     4.0661153536e-01
 1  2  3     0.0000000000e+00
 1  3  1     0.0000000000e+00
 1  3  2     0.0000000000e+00
 1  3  3    -7.5511125380e-02
 2  1  1     4.0661153536e-01
 2  1  2     4.0661153536e-01
 2  1  3     0.0000000000e+00
 2  2  1     4.0707854236e-01
 2  2  2     2.5579030587e-01
 2  2  3     0.0000000000e+00
 2  3  1     0.0000000000e+00
 2  3  2     0.0000000000e+00
 2  3  3    -7.5511125380e-02
 3  1  1     0.0000000000e+00
 3  1  2     0.0000000000e+00
 3  1  3    -7.5511125380e-02
 3  2  1     0.0000000000e+00
 3  2  2     0.0000000000e+00
 3  2  3    -7.5511125380e-02
 3  3  1    -7.6163130654e-02
 3  3  2    -7.6163130654e-02
 3  3  3     0.0000000000e+00

   23
0.0000000000e+00 0.0000000000e+00 0.0000000000e+00
-2.8270747338e+00 -2.8270747338e+00 0.0000000000e+00
     1      1      2
 1  1  1     0.0000000000e+00
 1  1  2     0.0000000000e+00
 1  1  3     6.4397882412e-01
 1  2  1     0.0000000000e+00
 1  2  2     0.0000000000e+00
 1  2  3     0.0000000000e+00
 1  3  1     6.4527354623e-01
 1  3  2     0.0000000000e+00
 1  3  3     0.0000000000e+00
 2  1  1     0.0000000000e+00
 2  1  2     0.0000000000e+00
 2  1  3     0.0000000000e+00
 2  2  1     0.0000000000e+00
 2  2  2     0.0000000000e+00
 2  2  3     6.4397882412e-01
 2  3  1     0.0000000000e+00
 2  3  2     6.4527354623e-01
 2  3  3     0.0000000000e+00
 3  1  1     6.4527354623e-01
 3  1  2     0.0000000000e+00
 3  1  3     0.0000000000e+00
 3  2  1     0.0000000000e+00
 3  2  2     6.4527354623e-01
 3  2  3     0.0000000000e+00
 3  3  1     0.0000000000e+00
 3  3  2     0.0000000000e+00
 3  3  3    -1.5719024074e+01

   24
0.0000000000e+00 0.0000000000e+00 0.0000000000e+00
-2.8270747338e+00 -3.1386834618e-16 2.8270747338e+00
     1      1      1
 1  1  1     2.5579030587e-01
 1  1  2     0.0000000000e+00
 1  1  3    -4.0707854236e-01
 1  2  1     0.0000000000e+00
 1  2  2    -7.5511125380e-02
 1  2  3     0.0000000000e+00
 1  3  1    -4.0661153536e-01
 1  3  2     0.0000000000e+00
 1  3  3     4.0661153536e-01
 2  1  1     0.0000000000e+00
 2  1  2    -7.5511125380e-02
 2  1  3     0.0000000000e+00
 2  2  1    -7.6163130654e-02
 2  2  2     0.0000000000e+00
 2  2  3     7.6163130654e-02
 2  3  1     0.0000000000e+00
 2  3  2     7.5511125380e-02
 2  3  3     0.0000000000e+00
 3  1  1    -4.0661153536e-01
 3  1  2     0.0000000000e+00
 3  1  3     4.0661153536e-01
 3  2  1     0.0000000000e+00
 3  2  2     7.5511125380e-02
 3  2  3     0.0000000000e+00
 3  3  1     4.0707854236e-01
 3  3  2     0.0000000000e+00
 3  3  3    -2.5579030587e-01

   25
0.0000000000e+00 0.0000000000e+00 0.0000000000e+00
-2.8270747338e+00 -5.6541494677e+00 -2.8270747338e+00
     1      1      2
 1  1  1     0.0000000000e+00
 1  1  2    -6.4397882412e-01
 1  1  3     0.0000000000e+00
 1  2  1    -6.4527354623e-01
 1  2  2     0.0000000000e+00
 1  2  3     0.0000000000e+00
 1  3  1     0.0000000000e+00
 1  3  2     0.0000000000e+00
 1  3  3     0.0000000000e+00
 2  1  1    -6.4527354623e-01
 2  1  2     0.0000000000e+00
 2  1  3     0.0000000000e+00
 2  2  1     0.0000000000e+00
 2  2  2     1.5719024074e+01
 2  2  3     0.0000000000e+00
 2  3  1     0.0000000000e+00
 2  3  2     0.0000000000e+00
 2  3  3    -6.4527354623e-01
 3  1  1     0.0000000000e+00
 3  1  2     0.0000000000e+00
 3  1  3     0.0000000000e+00
 3  2  1     0.0000000000e+00
 3  2  2     0.0000000000e+00
 3  2  3    -6.4527354623e-01
 3  3  1     0.0000000000e+00
 3  3  2    -6.4397882412e-01
 3  3  3     0.0000000000e+00

   26
0.0000000000e+00 0.0000000000e+00 0.0000000000e+00
-5.5511151231e-16 -2.8270747338e+00 2.8270747338e+00
     1      1      1
 1  1  1     0.0000000000e+00
 1  1  2    -7.6163130654e-02
 1  1  3     7.6163130654e-02
 1  2  1    -7.5511125380e-02
 1  2  2     0.0000000000e+00
 1  2  3     0.0000000000e+00
 1  3  1     7.5511125380e-02
 1  3  2     0.0000000000e+00
 1  3  3     0.0000000000e+00
 2  1  1    -7.5511125380e-02
 2  1  2     0.0000000000e+00
 2  1  3     0.0000000000e+00
 2  2  1     0.0000000000e+00
 2  2  2     2.5579030587e-01
 2  2  3    -4.0707854236e-01
 2  3  1     0.0000000000e+00
 2  3  2    -4.0661153536e-01
 2  3  3     4.0661153536e-01
 3  1  1     7.5511125380e-02
 3  1  2     0.0000000000e+00
 3  1  3     0.0000000000e+00
 3  2  1     0.0000000000e+00
 3  2  2    -4.0661153536e-01
 3  2  3     4.0661153536e-01
 3  3  1     0.0000000000e+00
 3  3  2     4.0707854236e-01
 3  3  3    -2.5579030587e-01

   27
0.0000000000e+00 0.0000000000e+00 0.0000000000e+00
-5.5511151231e-16 -3.1386834618e-16 5.6541494677e+00
     1      1      1
 1  1  1     0.0000000000e+00
 1  1  2     0.0000000000e+00
 1  1  3    -2.2596281694e-02
 1  2  1     0.0000000000e+00
 1  2  2     0.0000000000e+00
 1  2  3     0.0000000000e+00
 1  3  1    -2.2896864798e-02
 1  3  2     0.0000000000e+00
 1  3  3     0.0000000000e+00
 2  1  1     0.0000000000e+00
 2  1  2     0.0000000000e+00
 2  1  3     0.0000000000e+00
 2  2  1     0.0000000000e+00
 2  2  2     0.0000000000e+00
 2  2  3    -2.2596281694e-02
 2  3  1     0.0000000000e+00
 2  3  2    -2.2896864798e-02
 2  3  3     0.0000000000e+00
 3  1  1    -2.2896864798e-02
 3  1  2     0.0000000000e+00
 3  1  3     0.0000000000e+00
 3  2  1     0.0000000000e+00
 3  2  2    -2.2896864798e-02
 3  2  3     0.0000000000e+00
 3  3  1     0.0000000000e+00
 3  3  2     0.0000000000e+00
 3  3  3     1.7019002920e-01

   28
0.0000000000e+00 0.0000000000e+00 0.0000000000e+00
-5.5511151231e-16 -5.6541494677e+00 -5.5511151231e-16
     1      1      1
 1  1  1     0.0000000000e+00
 1  1  2     2.2596281694e-02
 1  1  3     0.0000000000e+00
 1  2  1     2.2896864798e-02
 1  2  2     0.0000000000e+00
 1  2  3     0.0000000000e+00
 1  3  1     0.0000000000e+00
 1  3  2     0.0000000000e+00
 1  3  3     0.0000000000e+00
 2  1  1     2.2896864798e-02
 2  1  2     0.0000000000e+00
 2  1  3     0.0000000000e+00
 2  2  1     0.0000000000e+00
 2  2  2    -1.7019002920e-01
 2  2  3     0.0000000000e+00
 2  3  1     0.0000000000e+00
 2  3  2     0.0000000000e+00
 2  3  3     2.2896864798e-02
 3  1  1     0.0000000000e+00
 3  1  2     0.0000000000e+00
 3  1  3     0.0000000000e+00
 3  2  1     0.0000000000e+00
 3  2  2     0.0000000000e+00
 3  2  3     2.2896864798e-02
 3  3  1     0.0000000000e+00
 3  3  2     2.2596281694e-02
 3  3  3     0.0000000000e+00

   29
0.0000000000e+00 0.0000000000e+00 0.0000000000e+00
1.1102230246e-15 -5.6541494677e+00 1.1102230246e-15
     1      1      2
 1  1  1     2.0481872999e-04
 1  1  2    -3.2061304233e-03
 1  1  3     3.2061304233e-03
 1  2  1    -2.8606286530e-03
 1  2  2     2.8606286530e-03
 1  2  3    -4.3273870250e-03
 1  3  1     2.8606286530e-03
 1  3  2    -4.3273870250e-03
 1  3  3     2.8606286530e-03
 2  1  1    -2.8606286530e-03
 2  1  2     2.8606286530e-03
 2  1  3    -4.3273870250e-03
 2  2  1     3.2061304233e-03
 2  2  2    -2.0481872999e-04
 2  2  3     3.2061304233e-03
 2  3  1    -4.3273870250e-03
 2  3  2     2.8606286530e-03
 2  3  3    -2.8606286530e-03
 3  1  1     2.8606286530e-03
 3  1  2    -4.3273870250e-03
 3  1  3     2.8606286530e-03
 3  2  1    -4.3273870250e-03
 3  2  2     2.8606286530e-03
 3  2  3    -2.8606286530e-03
 3  3  1     3.2061304233e-03
 3  3  2    -3.2061304233e-03
 3  3  3     2.0481872999e-04

   30
0.0000000000e+00 0.0000000000e+00 0.0000000000e+00
-5.6541494677e+00 -2.8270747338e+00 -2.8270747338e+00
     1      1      2
 1  1  1     1.5719024074e+01
 1  1  2     0.0000000000e+00
 1  1  3     0.0000000000e+00
 1  2  1     0.0000000000e+00
 1  2  2    -6.4527354623e-01
 1  2  3     0.0000000000e+00
 1  3  1     0.0000000000e+00
 1  3  2     0.0000000000e+00
 1  3  3    -6.4527354623e-01
 2  1  1     0.0000000000e+00
 2  1  2    -6.4527354623e-01
 2  1  3     0.0000000000e+00
 2  2  1    -6.4397882412e-01
 2  2  2     0.0000000000e+00
 2  2  3     0.0000000000e+00
 2  3  1     0.0000000000e+00
 2  3  2     0.0000000000e+00
 2  3  3     0.0000000000e+00
 3  1  1     0.0000000000e+00
 3  1  2     0.0000000000e+00
 3  1  3    -6.4527354623e-01
 3  2  1     0.0000000000e+00
 3  2  2     0.0000000000e+00
 3  2  3     0.0000000000e+00
 3  3  1    -6.4397882412e-01
 3  3  2     0.0000000000e+00
 3  3  3     0.0000000000e+00

   31
0.0000000000e+00 0.0000000000e+00 0.0000000000e+00
-5.6541494677e+00 -3.1386834618e-16 -5.5511151231e-16
     1      1      1
 1  1  1    -1.7019002920e-01
 1  1  2     0.0000000000e+00
 1  1  3     0.0000000000e+00
 1  2  1     0.0000000000e+00
 1  2  2     2.2896864798e-02
 1  2  3     0.0000000000e+00
 1  3  1     0.0000000000e+00
 1  3  2     0.0000000000e+00
 1  3  3     2.2896864798e-02
 2  1  1     0.0000000000e+00
 2  1  2     2.2896864798e-02
 2  1  3     0.0000000000e+00
 2  2  1     2.2596281694e-02
 2  2  2     0.0000000000e+00
 2  2  3     0.0000000000e+00
 2  3  1     0.0000000000e+00
 2  3  2     0.0000000000e+00
 2  3  3     0.0000000000e+00
 3  1  1     0.0000000000e+00
 3  1  2     0.0000000000e+00
 3  1  3     2.2896864798e-02
 3  2  1     0.0000000000e+00
 3  2  2     0.0000000000e+00
 3  2  3     0.0000000000e+00
 3  3  1     2.2596281694e-02
 3  3  2     0.0000000000e+00
 3  3  3     0.0000000000e+00

   32
0.0000000000e+00 0.0000000000e+00 0.0000000000e+00
-5.6541494677e+00 1.1828482047e-15 1.1102230246e-15
     1      1      2
 1  1  1    -2.0481872999e-04
 1  1  2     3.2061304233e-03
 1  1  3     3.2061304233e-03
 1  2  1     2.8606286530e-03
 1  2  2    -2.8606286530e-03
 1  2  3    -4.3273870250e-03
 1  3  1     2.8606286530e-03
 1  3  2    -4.3273870250e-03
 1  3  3    -2.8606286530e-03
 2  1  1     2.8606286530e-03
 2  1  2    -2.8606286530e-03
 2  1  3    -4.3273870250e-03
 2  2  1    -3.2061304233e-03
 2  2  2     2.0481872999e-04
 2  2  3     3.2061304233e-03
 2  3  1    -4.3273870250e-03
 2  3  2     2.8606286530e-03
 2  3  3     2.8606286530e-03
 3  1  1     2.8606286530e-03
 3  1  2    -4.3273870250e-03
 3  1  3    -2.8606286530e-03
 3  2  1    -4.3273870250e-03