216  
2    

1    
  0.0300000000000000   0.0000000000000000   0.0000000000000000
  -0.1976207961    0.0000000000    0.0000000000
  -0.0036662609    0.0000000000    0.0000000000
  -0.0035209078    0.0000000000    0.0000000000
   0.0002745942    0.0000101567    0.0000000000
  -0.0000211311   -0.0000471004    0.0000000000
  -0.0000209188    0.0000464985    0.0000000000
   0.0002745942   -0.0000101567    0.0000000000
  -0.0000211311    0.0000471004    0.0000000000
  -0.0000209188   -0.0000464985    0.0000000000
   0.0002745942    0.0000000000    0.0000101567
  -0.0000211311    0.0000000000   -0.0000471004
  -0.0000209188    0.0000000000    0.0000464985
  -0.0000015516    0.0000001891    0.0000001891
   0.0000007123   -0.0000009200   -0.0000009200
   0.0000008393    0.0000009772    0.0000009772
  -0.0000015516   -0.0000001891    0.0000001891
   0.0000007123    0.0000009200   -0.0000009200
   0.0000008393   -0.0000009772    0.0000009772
   0.0002745942    0.0000000000   -0.0000101567
  -0.0000211311    0.0000000000    0.0000471004
  -0.0000209188    0.0000000000   -0.0000464985
  -0.0000015516    0.0000001891   -0.0000001891
   0.0000007123   -0.0000009200    0.0000009200
   0.0000008393    0.0000009772   -0.0000009772
  -0.0000015516   -0.0000001891   -0.0000001891
   0.0000007123    0.0000009200    0.0000009200
   0.0000008393   -0.0000009772   -0.0000009772
  -0.0000521611   -0.0000357469   -0.0000357469
  -0.0000241340   -0.0000336246   -0.0000336246
  -0.0000248768    0.0000333919    0.0000333919
  -0.0000047232    0.0000000000    0.0000000845
   0.0000022646    0.0000000000    0.0000020114
   0.0000024585    0.0000000000   -0.0000019628
  -0.0000521611    0.0000357469   -0.0000357469
  -0.0000241340    0.0000336246   -0.0000336246
  -0.0000248768   -0.0000333919    0.0000333919
  -0.0000047232    0.0000000845    0.0000000000
   0.0000022646    0.0000020114    0.0000000000
   0.0000024585   -0.0000019628    0.0000000000
  -0.0000050844    0.0000000000    0.0000000000
   0.0000025144    0.0000000000    0.0000000000
   0.0000025700    0.0000000000    0.0000000000
  -0.0000047232   -0.0000000845    0.0000000000
   0.0000022646   -0.0000020114    0.0000000000
   0.0000024585    0.0000019628    0.0000000000
  -0.0000521611   -0.0000357469    0.0000357469
  -0.0000241340   -0.0000336246    0.0000336246
  -0.0000248768    0.0000333919   -0.0000333919
  -0.0000047232    0.0000000000   -0.0000000845
   0.0000022646    0.0000000000   -0.0000020114
   0.0000024585    0.0000000000    0.0000019628
  -0.0000521611    0.0000357469    0.0000357469
  -0.0000241340    0.0000336246    0.0000336246
  -0.0000248768   -0.0000333919   -0.0000333919
   0.0067363159    0.0000000000    0.0069120245
  -0.0000756616    0.0000000000   -0.0000001800
   0.0064972536    0.0000000000   -0.0065301204
  -0.0000009582   -0.0000332560   -0.0000177785
   0.0000071496   -0.0000000150   -0.0000000064
  -0.0000012462    0.0000337643    0.0000177873
  -0.0000009582    0.0000332560   -0.0000177785
   0.0000071496    0.0000000150   -0.0000000064
  -0.0000012462   -0.0000337643    0.0000177873
  -0.0000083412    0.0000000000    0.0000000000
   0.0000167765    0.0000000000    0.0000000000
  -0.0000084353    0.0000000000    0.0000000000
  -0.0000042638    0.0000019849    0.0000000000
   0.0000084671    0.0000000500    0.0000000000
  -0.0000042033   -0.0000019891    0.0000000000
  -0.0000042638   -0.0000019849    0.0000000000
   0.0000084671   -0.0000000500    0.0000000000
  -0.0000042033    0.0000019891    0.0000000000
   0.0067363159    0.0000000000   -0.0069120245
  -0.0000756616    0.0000000000    0.0000001800
   0.0064972536    0.0000000000    0.0065301204
  -0.0000009582   -0.0000332560    0.0000177785
   0.0000071496   -0.0000000150    0.0000000064
  -0.0000012462    0.0000337643   -0.0000177873
  -0.0000009582    0.0000332560    0.0000177785
   0.0000071496    0.0000000150    0.0000000064
  -0.0000012462   -0.0000337643   -0.0000177873
   0.0067363159    0.0069120245    0.0000000000
  -0.0000756616   -0.0000001800    0.0000000000
   0.0064972536   -0.0065301204    0.0000000000
  -0.0000083412    0.0000000000    0.0000000000
   0.0000167765    0.0000000000    0.0000000000
  -0.0000084353    0.0000000000    0.0000000000
   0.0067363159   -0.0069120245    0.0000000000
  -0.0000756616    0.0000001800    0.0000000000
   0.0064972536    0.0065301204    0.0000000000
  -0.0000009582   -0.0000177785   -0.0000332560
   0.0000071496   -0.0000000064   -0.0000000150
  -0.0000012462    0.0000177873    0.0000337643
  -0.0000042638    0.0000000000    0.0000019849
   0.0000084671    0.0000000000    0.0000000500
  -0.0000042033    0.0000000000   -0.0000019891
  -0.0000009582    0.0000177785   -0.0000332560
   0.0000071496    0.0000000064   -0.0000000150
  -0.0000012462   -0.0000177873    0.0000337643
  -0.0000009582   -0.0000177785    0.0000332560
   0.0000071496   -0.0000000064    0.0000000150
  -0.0000012462    0.0000177873   -0.0000337643
  -0.0000042638    0.0000000000   -0.0000019849
   0.0000084671    0.0000000000   -0.0000000500
  -0.0000042033    0.0000000000    0.0000019891
  -0.0000009582    0.0000177785    0.0000332560
   0.0000071496    0.0000000064    0.0000000150
  -0.0000012462   -0.0000177873   -0.0000337643
  -0.0035856358   -0.0035959117   -0.0035959117
   0.0000816599    0.0000004560    0.0000004560
  -0.0000991351    0.0000711365    0.0000711365
   0.0000032561    0.0000000000    0.0000180893
  -0.0000066749    0.0000000000   -0.0000000255
   0.0000034188    0.0000000000   -0.0000179793
  -0.0035856358    0.0035959117   -0.0035959117
   0.0000816599   -0.0000004560    0.0000004560
  -0.0000991351   -0.0000711365    0.0000711365
   0.0000032561    0.0000180893    0.0000000000
  -0.0000066749   -0.0000000255    0.0000000000
   0.0000034188   -0.0000179793    0.0000000000
   0.0000001639    0.0000000000    0.0000000000
  -0.0000003079    0.0000000000    0.0000000000
   0.0000001439    0.0000000000    0.0000000000
   0.0000032561   -0.0000180893    0.0000000000
  -0.0000066749    0.0000000255    0.0000000000
   0.0000034188    0.0000179793    0.0000000000
  -0.0035856358   -0.0035959117    0.0035959117
   0.0000816599    0.0000004560   -0.0000004560
  -0.0000991351    0.0000711365   -0.0000711365
   0.0000032561    0.0000000000   -0.0000180893
  -0.0000066749    0.0000000000    0.0000000255
   0.0000034188    0.0000000000    0.0000179793
  -0.0035856358    0.0035959117    0.0035959117
   0.0000816599   -0.0000004560   -0.0000004560
  -0.0000991351   -0.0000711365   -0.0000711365
   0.0756599479    0.0000000000    0.0000000000
   0.0001491602    0.0000000000    0.0000000000
   0.0605348990    0.0000000000    0.0000000000
  -0.0000157364    0.0000725567    0.0000000000
   0.0000371064    0.0000004557    0.0000000000
  -0.0000150550   -0.0000722909    0.0000000000
  -0.0000157364   -0.0000725567    0.0000000000
   0.0000371064   -0.0000004557    0.0000000000
  -0.0000150550    0.0000722909    0.0000000000
  -0.0000157364    0.0000000000    0.0000725567
   0.0000371064    0.0000000000    0.0000004557
  -0.0000150550    0.0000000000   -0.0000722909
   0.0000021999    0.0000235431    0.0000235431
  -0.0000045747   -0.0000000222   -0.0000000222
   0.0000023748   -0.0000238103   -0.0000238103
   0.0000021999   -0.0000235431    0.0000235431
  -0.0000045747    0.0000000222   -0.0000000222
   0.0000023748    0.0000238103   -0.0000238103
  -0.0000157364    0.0000000000   -0.0000725567
   0.0000371064    0.0000000000   -0.0000004557
  -0.0000150550    0.0000000000    0.0000722909
   0.0000021999    0.0000235431   -0.0000235431
  -0.0000045747   -0.0000000222    0.0000000222
   0.0000023748   -0.0000238103    0.0000238103
   0.0000021999   -0.0000235431   -0.0000235431
  -0.0000045747    0.0000000222    0.0000000222
   0.0000023748    0.0000238103    0.0000238103
   0.0072524303   -0.0003220950    0.0000000000
   0.0000869807    0.0000611923    0.0000000000
   0.0000871297   -0.0000599304    0.0000000000
  -0.0000331275    0.0000000000    0.0000000000
   0.0000166614    0.0000000000    0.0000000000
   0.0000164662    0.0000000000    0.0000000000
   0.0072524303    0.0003220950    0.0000000000
   0.0000869807   -0.0000611923    0.0000000000
   0.0000871297    0.0000599304    0.0000000000
  -0.0000625348    0.0000001053   -0.0000001360
   0.0000279899    0.0000269402    0.0000453862
   0.0000280818   -0.0000264588   -0.0000450062
   0.0000029996    0.0000000000   -0.0000001017
  -0.0000014847    0.0000000000   -0.0000031666
  -0.0000015149    0.0000000000    0.0000031418
  -0.0000625348   -0.0000001053   -0.0000001360
   0.0000279899   -0.0000269402    0.0000453862
   0.0000280818    0.0000264588   -0.0000450062
  -0.0000625348    0.0000001053    0.0000001360
   0.0000279899    0.0000269402   -0.0000453862
   0.0000280818   -0.0000264588    0.0000450062
   0.0000029996    0.0000000000    0.0000001017
  -0.0000014847    0.0000000000    0.0000031666
  -0.0000015149    0.0000000000   -0.0000031418
  -0.0000625348   -0.0000001053    0.0000001360
   0.0000279899   -0.0000269402   -0.0000453862
   0.0000280818    0.0000264588    0.0000450062
   0.0072524303    0.0000000000   -0.0003220950
   0.0000869807    0.0000000000    0.0000611923
   0.0000871297    0.0000000000   -0.0000599304
  -0.0000625348   -0.0000001360    0.0000001053
   0.0000279899    0.0000453862    0.0000269402
   0.0000280818   -0.0000450062   -0.0000264588
  -0.0000625348    0.0000001360    0.0000001053
   0.0000279899   -0.0000453862    0.0000269402
   0.0000280818    0.0000450062   -0.0000264588
  -0.0000331275    0.0000000000    0.0000000000
   0.0000166614    0.0000000000    0.0000000000
   0.0000164662    0.0000000000    0.0000000000
   0.0000029996   -0.0000001017    0.0000000000
  -0.0000014847   -0.0000031666    0.0000000000
  -0.0000015149    0.0000031418    0.0000000000
   0.0000029996    0.0000001017    0.0000000000
  -0.0000014847    0.0000031666    0.0000000000
  -0.0000015149   -0.0000031418    0.0000000000
   0.0072524303    0.0000000000    0.0003220950
   0.0000869807    0.0000000000   -0.0000611923
   0.0000871297    0.0000000000    0.0000599304
  -0.0000625348   -0.0000001360   -0.0000001053
   0.0000279899    0.0000453862   -0.0000269402
   0.0000280818   -0.0000450062    0.0000264588
  -0.0000625348    0.0000001360   -0.0000001053
   0.0000279899   -0.0000453862   -0.0000269402
   0.0000280818    0.0000450062    0.0000264588

109  
  0.0300000000000000   0.0000000000000000   0.0000000000000000
  -0.0000997997   -0.0000714664   -0.0000714664
  -0.0035849791    0.0035955832    0.0035955832
   0.0000816607   -0.0000003636   -0.0000003636
  -0.0000997997    0.0000714664   -0.0000714664
  -0.0035849791   -0.0035955832    0.0035955832
   0.0000816607    0.0000003636   -0.0000003636
   0.0000034290    0.0000000000    0.0000179782
   0.0000032456    0.0000000000   -0.0000180912
  -0.0000066746    0.0000000000    0.0000000337
  -0.0000997997   -0.0000714664    0.0000714664
  -0.0035849791    0.0035955832   -0.0035955832
   0.0000816607   -0.0000003636    0.0000003636
  -0.0000997997    0.0000714664    0.0000714664
  -0.0035849791   -0.0035955832   -0.0035955832
   0.0000816607    0.0000003636    0.0000003636
   0.0000034290    0.0000000000   -0.0000179782
   0.0000032456    0.0000000000    0.0000180912
  -0.0000066746    0.0000000000   -0.0000000337
   0.0000034290    0.0000179782    0.0000000000
   0.0000032456   -0.0000180912    0.0000000000
  -0.0000066746    0.0000000337    0.0000000000
   0.0000034290   -0.0000179782    0.0000000000
   0.0000032456    0.0000180912    0.0000000000
  -0.0000066746   -0.0000000337    0.0000000000
   0.0000001409    0.0000000000    0.0000000000
   0.0000001669    0.0000000000    0.0000000000
  -0.0000003079    0.0000000000    0.0000000000
   0.0605342854    0.0000000000    0.0000000000
   0.0756605570    0.0000000000    0.0000000000
   0.0001491587    0.0000000000    0.0000000000
  -0.0000152998   -0.0000600365    0.0000000000
  -0.0000154907    0.0000610963    0.0000000000
   0.0000371072    0.0000003714    0.0000000000
  -0.0000152998    0.0000600365    0.0000000000
  -0.0000154907   -0.0000610963    0.0000000000
   0.0000371072   -0.0000003714   -0.0000000000
  -0.0000152998    0.0000000000   -0.0000600365
  -0.0000154907    0.0000000000    0.0000610963
   0.0000371072    0.0000000000    0.0000003714
   0.0000023781   -0.0000267204   -0.0000267204
   0.0000021964    0.0000266782    0.0000266782
  -0.0000045745   -0.0000000140   -0.0000000140
   0.0000023781    0.0000267204   -0.0000267204
   0.0000021964   -0.0000266782    0.0000266782
  -0.0000045745    0.0000000140   -0.0000000140
  -0.0000152998    0.0000000000    0.0000600365
  -0.0000154907    0.0000000000   -0.0000610963
   0.0000371072    0.0000000000   -0.0000003714
   0.0000023781   -0.0000267204    0.0000267204
   0.0000021964    0.0000266782   -0.0000266782
  -0.0000045745   -0.0000000140    0.0000000140
   0.0000023781    0.0000267204    0.0000267204
   0.0000021964   -0.0000266782   -0.0000266782
  -0.0000045745    0.0000000140    0.0000000140
   0.0072524291    0.0003217147    0.0000000000
   0.0000874118   -0.0000731134    0.0000000000
   0.0000867140    0.0000717391    0.0000000000
   0.0072524291   -0.0003217147    0.0000000000
   0.0000874118    0.0000731134    0.0000000000
   0.0000867140   -0.0000717391    0.0000000000
  -0.0000331284    0.0000000000    0.0000000000
   0.0000166788    0.0000000000    0.0000000000
   0.0000164495    0.0000000000    0.0000000000
  -0.0000625372   -0.0000002585    0.0000005042
   0.0000280768   -0.0000238489    0.0000454246
   0.0000279958    0.0000235063   -0.0000449688
  -0.0000625372    0.0000002585    0.0000005042
   0.0000280768    0.0000238489    0.0000454246
   0.0000279958   -0.0000235063   -0.0000449688
   0.0000029996    0.0000000000   -0.0000001027
  -0.0000014774    0.0000000000   -0.0000031541
  -0.0000015222    0.0000000000    0.0000031541
  -0.0000625372   -0.0000002585   -0.0000005042
   0.0000280768   -0.0000238489   -0.0000454246
   0.0000279958    0.0000235063    0.0000449688
  -0.0000625372    0.0000002585   -0.0000005042
   0.0000280768    0.0000238489   -0.0000454246
   0.0000279958   -0.0000235063    0.0000449688
   0.0000029996    0.0000000000    0.0000001027
  -0.0000014774    0.0000000000    0.0000031541
  -0.0000015222    0.0000000000   -0.0000031541
   0.0072524291    0.0000000000    0.0003217147
   0.0000874118    0.0000000000   -0.0000731134
   0.0000867140    0.0000000000    0.0000717391
  -0.0000625372    0.0000005042   -0.0000002585
   0.0000280768    0.0000454246   -0.0000238489
   0.0000279958   -0.0000449688    0.0000235063
  -0.0000625372   -0.0000005042   -0.0000002585
   0.0000280768   -0.0000454246   -0.0000238489
   0.0000279958    0.0000449688    0.0000235063
   0.0072524291    0.0000000000   -0.0003217147
   0.0000874118    0.0000000000    0.0000731134
   0.0000867140    0.0000000000   -0.0000717391
  -0.0000625372    0.0000005042    0.0000002585
   0.0000280768    0.0000454246    0.0000238489
   0.0000279958   -0.0000449688   -0.0000235063
  -0.0000625372   -0.0000005042    0.0000002585
   0.0000280768   -0.0000454246    0.0000238489
   0.0000279958    0.0000449688   -0.0000235063
  -0.0000331284    0.0000000000    0.0000000000
   0.0000166788    0.0000000000    0.0000000000
   0.0000164495    0.0000000000    0.0000000000
   0.0000029996   -0.0000001027    0.0000000000
  -0.0000014774   -0.0000031541    0.0000000000
  -0.0000015222    0.0000031541    0.0000000000
   0.0000029996    0.0000001027    0.0000000000
  -0.0000014774    0.0000031541    0.0000000000
  -0.0000015222   -0.0000031541    0.0000000000
  -0.2970285804    0.0000000000    0.0000000000
  -0.0033382999    0.0000000000    0.0000000000
  -0.0043852237    0.0000000000    0.0000000000
   0.0010936243    0.0000130946    0.0000000000
  -0.0000276337   -0.0000506468   -0.0000000000
  -0.0000275454    0.0000499230    0.0000000000
   0.0010936243   -0.0000130946   -0.0000000000
  -0.0000276337    0.0000506468    0.0000000000
  -0.0000275454   -0.0000499230    0.0000000000
   0.0010936243    0.0000000000    0.0000130946
  -0.0000276337    0.0000000000   -0.0000506468
  -0.0000275454    0.0000000000    0.0000499230
   0.0000058679    0.0000001868    0.0000001868
  -0.0000029618   -0.0000034526   -0.0000034526
  -0.0000029061    0.0000034530    0.0000034530
   0.0000058679   -0.0000001868    0.0000001868
  -0.0000029618    0.0000034526   -0.0000034526
  -0.0000029061   -0.0000034530    0.0000034530
   0.0010936243    0.0000000000   -0.0000130946
  -0.0000276337    0.0000000000    0.0000506468
  -0.0000275454    0.0000000000   -0.0000499230
   0.0000058679    0.0000001868   -0.0000001868
  -0.0000029618   -0.0000034526    0.0000034526
  -0.0000029061    0.0000034530   -0.0000034530
   0.0000058679   -0.0000001868   -0.0000001868
  -0.0000029618    0.0000034526    0.0000034526
  -0.0000029061   -0.0000034530   -0.0000034530
  -0.0047042090    0.0001369039    0.0001369039
   0.0000037702    0.0000175045    0.0000175045
   0.0000013801   -0.0000181136   -0.0000181136
  -0.0047042090   -0.0001369039    0.0001369039
   0.0000037702   -0.0000175045    0.0000175045
   0.0000013801    0.0000181136   -0.0000181136
   0.0000044948    0.0000000000   -0.0000000891
  -0.0000022981    0.0000000000    0.0000008672
  -0.0000021967    0.0000000000   -0.0000008743
  -0.0047042090    0.0001369039   -0.0001369039
   0.0000037702    0.0000175045   -0.0000175045
   0.0000013801   -0.0000181136    0.0000181136
  -0.0047042090   -0.0001369039   -0.0001369039
   0.0000037702   -0.0000175045   -0.0000175045
   0.0000013801    0.0000181136    0.0000181136
   0.0000044948    0.0000000000    0.0000000891
  -0.0000022981    0.0000000000   -0.0000008672
  -0.0000021967    0.0000000000    0.0000008743
   0.0000044948   -0.0000000891    0.0000000000
  -0.0000022981    0.0000008672    0.0000000000
  -0.0000021967   -0.0000008743    0.0000000000
   0.0000044948    0.0000000891    0.0000000000
  -0.0000022981   -0.0000008672    0.0000000000
  -0.0000021967    0.0000008743    0.0000000000
  -0.0000015377    0.0000000000    0.0000000000
   0.0000007604    0.0000000000    0.0000000000
   0.0000007773    0.0000000000    0.0000000000
   0.0207222083    0.0000000000    0.0252141315
   0.0212831294    0.0000000000   -0.0263236726
  -0.0000942884    0.0000000000    0.0000002261
   0.0000103900    0.0000182280   -0.0000109310
   0.0000107445   -0.0000174067    0.0000107739
  -0.0000037516   -0.0000000610    0.0000000411
   0.0000103900   -0.0000182280   -0.0000109310
   0.0000107445    0.0000174067    0.0000107739
  -0.0000037516    0.0000000610    0.0000000411
   0.0207222083    0.0000000000   -0.0252141315
   0.0212831294    0.0000000000    0.0263236726
  -0.0000942884    0.0000000000   -0.0000002261
   0.0000103900    0.0000182280    0.0000109310
   0.0000107445   -0.0000174067   -0.0000107739
  -0.0000037516   -0.0000000610   -0.0000000411
   0.0000103900   -0.0000182280    0.0000109310
   0.0000107445    0.0000174067   -0.0000107739
  -0.0000037516    0.0000000610   -0.0000000411
  -0.0000026639    0.0000000000    0.0000000000
  -0.0000024615    0.0000000000    0.0000000000
   0.0000051254    0.0000000000    0.0000000000
  -0.0000012868    0.0000008609    0.0000000000
  -0.0000012894   -0.0000008809    0.0000000000
   0.0000025762    0.0000000152    0.0000000000
  -0.0000012868   -0.0000008609    0.0000000000
  -0.0000012894    0.0000008809    0.0000000000
   0.0000025762   -0.0000000152    0.0000000000
   0.0207222083    0.0252141315    0.0000000000
   0.0212831294   -0.0263236726    0.0000000000
  -0.0000942884    0.0000002261    0.0000000000
   0.0207222083   -0.0252141315    0.0000000000
   0.0212831294    0.0263236726    0.0000000000
  -0.0000942884   -0.0000002261    0.0000000000
  -0.0000026639    0.0000000000    0.0000000000
  -0.0000024615    0.0000000000    0.0000000000
   0.0000051254    0.0000000000    0.0000000000
   0.0000103900   -0.0000109310    0.0000182280
   0.0000107445    0.0000107739   -0.0000174067
  -0.0000037516    0.0000000411   -0.0000000610
   0.0000103900    0.0000109310    0.0000182280
   0.0000107445   -0.0000107739   -0.0000174067
  -0.0000037516   -0.0000000411   -0.0000000610
  -0.0000012868    0.0000000000    0.0000008609
  -0.0000012894    0.0000000000   -0.0000008809
   0.0000025762    0.0000000000    0.0000000152
   0.0000103900   -0.0000109310   -0.0000182280
   0.0000107445    0.0000107739    0.0000174067
  -0.0000037516    0.0000000411    0.0000000610
   0.0000103900    0.0000109310   -0.0000182280
   0.0000107445   -0.0000107739    0.0000174067
  -0.0000037516   -0.0000000411    0.0000000610
  -0.0000012868    0.0000000000   -0.0000008609
  -0.0000012894    0.0000000000    0.0000008809
   0.0000025762    0.0000000000   -0.0000000152
