512  
2    

1    
  0.0300000000000000   0.0000000000000000   0.0000000000000000
  -0.1976210568    0.0000000000    0.0000000000
  -0.0036765199    0.0000000000    0.0000000000
   0.0000208996    0.0000000000    0.0000000000
  -0.0035312876    0.0000000000    0.0000000000
   0.0002768233    0.0000101391    0.0000000000
  -0.0000280777   -0.0000403288    0.0000000000
   0.0000117578    0.0000000764    0.0000000000
  -0.0000279590    0.0000396738    0.0000000000
  -0.0000046811    0.0000000000    0.0000000000
   0.0000015334    0.0000000000    0.0000000000
   0.0000015902    0.0000000000    0.0000000000
   0.0000015575    0.0000000000    0.0000000000
   0.0002768233   -0.0000101391    0.0000000000
  -0.0000280777    0.0000403288    0.0000000000
   0.0000117578   -0.0000000764    0.0000000000
  -0.0000279590   -0.0000396738    0.0000000000
   0.0002768233    0.0000000000    0.0000101391
  -0.0000280777    0.0000000000   -0.0000403288
   0.0000117578    0.0000000000    0.0000000764
  -0.0000279590    0.0000000000    0.0000396738
   0.0000001710    0.0000001762    0.0000001762
  -0.0000030459    0.0000014153    0.0000014153
   0.0000058482    0.0000000319    0.0000000319
  -0.0000029733   -0.0000013966   -0.0000013966
  -0.0000017311    0.0000000000   -0.0000000085
   0.0000008357    0.0000000000    0.0000018000
   0.0000000444    0.0000000000    0.0000000002
   0.0000008510    0.0000000000   -0.0000017933
   0.0000001710   -0.0000001762    0.0000001762
  -0.0000030459   -0.0000014153    0.0000014153
   0.0000058482   -0.0000000319    0.0000000319
  -0.0000029733    0.0000013966   -0.0000013966
  -0.0000046811    0.0000000000    0.0000000000
   0.0000015334    0.0000000000    0.0000000000
   0.0000015902    0.0000000000    0.0000000000
   0.0000015575    0.0000000000    0.0000000000
  -0.0000017311   -0.0000000085    0.0000000000
   0.0000008357    0.0000018000    0.0000000000
   0.0000000444    0.0000000002    0.0000000000
   0.0000008510   -0.0000017933    0.0000000000
   0.0000000000    0.0000000000    0.0000000000
  -0.0000000001    0.0000000000    0.0000000000
   0.0000000000    0.0000000000    0.0000000000
   0.0000000001    0.0000000000    0.0000000000
  -0.0000017311    0.0000000085    0.0000000000
   0.0000008357   -0.0000018000    0.0000000000
   0.0000000444   -0.0000000002    0.0000000000
   0.0000008510    0.0000017933    0.0000000000
   0.0002768233    0.0000000000   -0.0000101391
  -0.0000280777    0.0000000000    0.0000403288
   0.0000117578    0.0000000000   -0.0000000764
  -0.0000279590    0.0000000000   -0.0000396738
   0.0000001710    0.0000001762   -0.0000001762
  -0.0000030459    0.0000014153   -0.0000014153
   0.0000058482    0.0000000319   -0.0000000319
  -0.0000029733   -0.0000013966    0.0000013966
  -0.0000017311    0.0000000000    0.0000000085
   0.0000008357    0.0000000000   -0.0000018000
   0.0000000444    0.0000000000   -0.0000000002
   0.0000008510    0.0000000000    0.0000017933
   0.0000001710   -0.0000001762   -0.0000001762
  -0.0000030459   -0.0000014153   -0.0000014153
   0.0000058482   -0.0000000319   -0.0000000319
  -0.0000029733    0.0000013966    0.0000013966
  -0.0000518377   -0.0000357508   -0.0000357508
  -0.0000323101   -0.0000307846   -0.0000307846
   0.0000161304    0.0000000566    0.0000000566
  -0.0000331545    0.0000304953    0.0000304953
  -0.0000026159    0.0000000870    0.0000000412
  -0.0000005878    0.0000031163    0.0000016337
   0.0000037196    0.0000000309    0.0000000110
  -0.0000005159   -0.0000031354   -0.0000016194
  -0.0000026159   -0.0000000870    0.0000000412
  -0.0000005878   -0.0000031163    0.0000016337
   0.0000037196   -0.0000000309    0.0000000110
  -0.0000005159    0.0000031354   -0.0000016194
  -0.0000518377    0.0000357508   -0.0000357508
  -0.0000323101    0.0000307846   -0.0000307846
   0.0000161304   -0.0000000566    0.0000000566
  -0.0000331545   -0.0000304953    0.0000304953
  -0.0000026159    0.0000000412    0.0000000870
  -0.0000005878    0.0000016337    0.0000031163
   0.0000037196    0.0000000110    0.0000000309
  -0.0000005159   -0.0000016194   -0.0000031354
  -0.0000012711   -0.0000000166   -0.0000000166
   0.0000006117    0.0000019804    0.0000019804
   0.0000000337    0.0000000002    0.0000000002
   0.0000006256   -0.0000019819   -0.0000019819
  -0.0000012711    0.0000000166   -0.0000000166
   0.0000006117   -0.0000019804    0.0000019804
   0.0000000337   -0.0000000002    0.0000000002
   0.0000006256    0.0000019819   -0.0000019819
  -0.0000026159   -0.0000000412    0.0000000870
  -0.0000005878   -0.0000016337    0.0000031163
   0.0000037196   -0.0000000110    0.0000000309
  -0.0000005159    0.0000016194   -0.0000031354
  -0.0000026159    0.0000000412   -0.0000000870
  -0.0000005878    0.0000016337   -0.0000031163
   0.0000037196    0.0000000110   -0.0000000309
  -0.0000005159   -0.0000016194    0.0000031354
  -0.0000012711   -0.0000000166    0.0000000166
   0.0000006117    0.0000019804   -0.0000019804
   0.0000000337    0.0000000002   -0.0000000002
   0.0000006256   -0.0000019819    0.0000019819
  -0.0000012711    0.0000000166    0.0000000166
   0.0000006117   -0.0000019804   -0.0000019804
   0.0000000337   -0.0000000002   -0.0000000002
   0.0000006256    0.0000019819    0.0000019819
  -0.0000026159   -0.0000000412   -0.0000000870
  -0.0000005878   -0.0000016337   -0.0000031163
   0.0000037196   -0.0000000110   -0.0000000309
  -0.0000005159    0.0000016194    0.0000031354
  -0.0000518377   -0.0000357508    0.0000357508
  -0.0000323101   -0.0000307846    0.0000307846
   0.0000161304    0.0000000566   -0.0000000566
  -0.0000331545    0.0000304953   -0.0000304953
  -0.0000026159    0.0000000870   -0.0000000412
  -0.0000005878    0.0000031163   -0.0000016337
   0.0000037196    0.0000000309   -0.0000000110
  -0.0000005159   -0.0000031354    0.0000016194
  -0.0000026159   -0.0000000870   -0.0000000412
  -0.0000005878   -0.0000031163   -0.0000016337
   0.0000037196   -0.0000000309   -0.0000000110
  -0.0000005159    0.0000031354    0.0000016194
  -0.0000518377    0.0000357508    0.0000357508
  -0.0000323101    0.0000307846    0.0000307846
   0.0000161304   -0.0000000566   -0.0000000566
  -0.0000331545   -0.0000304953   -0.0000304953
   0.0067332337    0.0000000000    0.0069132338
  -0.0000352348    0.0000000000   -0.0000097446
  -0.0000341791    0.0000000000    0.0000095829
   0.0064940880    0.0000000000   -0.0065313494
  -0.0000011851   -0.0000304026   -0.0000180691
   0.0000037663    0.0000031318    0.0000011439
   0.0000038818   -0.0000031197   -0.0000011511
  -0.0000015178    0.0000308812    0.0000180665
  -0.0000018233    0.0000000000    0.0000014769
   0.0000018113    0.0000000000    0.0000008255
   0.0000018045    0.0000000000   -0.0000008126
  -0.0000017925    0.0000000000   -0.0000014725
  -0.0000011851    0.0000304026   -0.0000180691
   0.0000037663   -0.0000031318    0.0000011439
   0.0000038818    0.0000031197   -0.0000011511
  -0.0000015178   -0.0000308812    0.0000180665
  -0.0000046844    0.0000000000   -0.0000096299
   0.0000047117    0.0000000000    0.0000051411
   0.0000047116    0.0000000000   -0.0000050828
  -0.0000047389    0.0000000000    0.0000096954
  -0.0000021409    0.0000016187    0.0000011263
   0.0000021272    0.0000019937    0.0000029500
   0.0000021265   -0.0000019686   -0.0000029197
  -0.0000021129   -0.0000016343   -0.0000011687
  -0.0000000148    0.0000000000    0.0000008115
   0.0000000115    0.0000000000    0.0000000223
   0.0000000116    0.0000000000   -0.0000000221
  -0.0000000083    0.0000000000   -0.0000008266
  -0.0000021409   -0.0000016187    0.0000011263
   0.0000021272   -0.0000019937    0.0000029500
   0.0000021265    0.0000019686   -0.0000029197
  -0.0000021129    0.0000016343   -0.0000011687
  -0.0000046844    0.0000000000    0.0000096299
   0.0000047117    0.0000000000   -0.0000051411
   0.0000047116    0.0000000000    0.0000050828
  -0.0000047389    0.0000000000   -0.0000096954
  -0.0000021409    0.0000016187   -0.0000011263
   0.0000021272    0.0000019937   -0.0000029500
   0.0000021265   -0.0000019686    0.0000029197
  -0.0000021129   -0.0000016343    0.0000011687
  -0.0000000148    0.0000000000   -0.0000008115
   0.0000000115    0.0000000000   -0.0000000223
   0.0000000116    0.0000000000    0.0000000221
  -0.0000000083    0.0000000000    0.0000008266
  -0.0000021409   -0.0000016187   -0.0000011263
   0.0000021272   -0.0000019937   -0.0000029500
   0.0000021265    0.0000019686    0.0000029197
  -0.0000021129    0.0000016343    0.0000011687
   0.0067332337    0.0000000000   -0.0069132338
  -0.0000352348    0.0000000000    0.0000097446
  -0.0000341791    0.0000000000   -0.0000095829
   0.0064940880    0.0000000000    0.0065313494
  -0.0000011851   -0.0000304026    0.0000180691
   0.0000037663    0.0000031318   -0.0000011439
   0.0000038818   -0.0000031197    0.0000011511
  -0.0000015178    0.0000308812   -0.0000180665
  -0.0000018233    0.0000000000   -0.0000014769
   0.0000018113    0.0000000000   -0.0000008255
   0.0000018045    0.0000000000    0.0000008126
  -0.0000017925    0.0000000000    0.0000014725
  -0.0000011851    0.0000304026    0.0000180691
   0.0000037663   -0.0000031318   -0.0000011439
   0.0000038818    0.0000031197    0.0000011511
  -0.0000015178   -0.0000308812   -0.0000180665
   0.0067332337    0.0069132338    0.0000000000
  -0.0000352348   -0.0000097446    0.0000000000
  -0.0000341791    0.0000095829    0.0000000000
   0.0064940880   -0.0065313494    0.0000000000
  -0.0000046844   -0.0000096299    0.0000000000
   0.0000047117    0.0000051411    0.0000000000
   0.0000047116   -0.0000050828    0.0000000000
  -0.0000047389    0.0000096954    0.0000000000
  -0.0000046844    0.0000096299    0.0000000000
   0.0000047117   -0.0000051411    0.0000000000
   0.0000047116    0.0000050828    0.0000000000
  -0.0000047389   -0.0000096954    0.0000000000
   0.0067332337   -0.0069132338    0.0000000000
  -0.0000352348    0.0000097446    0.0000000000
  -0.0000341791   -0.0000095829    0.0000000000
   0.0064940880    0.0065313494    0.0000000000
  -0.0000011851   -0.0000180691   -0.0000304026
   0.0000037663    0.0000011439    0.0000031318
   0.0000038818   -0.0000011511   -0.0000031197
  -0.0000015178    0.0000180665    0.0000308812
  -0.0000021409    0.0000011263    0.0000016187
   0.0000021272    0.0000029500    0.0000019937
   0.0000021265   -0.0000029197   -0.0000019686
  -0.0000021129   -0.0000011687   -0.0000016343
  -0.0000021409   -0.0000011263    0.0000016187
   0.0000021272   -0.0000029500    0.0000019937
   0.0000021265    0.0000029197   -0.0000019686
  -0.0000021129    0.0000011687   -0.0000016343
  -0.0000011851    0.0000180691   -0.0000304026
   0.0000037663   -0.0000011439    0.0000031318
   0.0000038818    0.0000011511   -0.0000031197
  -0.0000015178   -0.0000180665    0.0000308812
  -0.0000018233    0.0000014769    0.0000000000
   0.0000018113    0.0000008255    0.0000000000
   0.0000018045   -0.0000008126    0.0000000000
  -0.0000017925   -0.0000014725    0.0000000000
  -0.0000000148    0.0000008115    0.0000000000
   0.0000000115    0.0000000223    0.0000000000
   0.0000000116   -0.0000000221    0.0000000000
  -0.0000000083   -0.0000008266    0.0000000000
  -0.0000000148   -0.0000008115    0.0000000000
   0.0000000115   -0.0000000223    0.0000000000
   0.0000000116    0.0000000221    0.0000000000
  -0.0000000083    0.0000008266    0.0000000000
  -0.0000018233   -0.0000014769    0.0000000000
   0.0000018113   -0.0000008255    0.0000000000
   0.0000018045    0.0000008126    0.0000000000
  -0.0000017925    0.0000014725    0.0000000000
  -0.0000011851   -0.0000180691    0.0000304026
   0.0000037663    0.0000011439   -0.0000031318
   0.0000038818   -0.0000011511    0.0000031197
  -0.0000015178    0.0000180665   -0.0000308812
  -0.0000021409    0.0000011263   -0.0000016187
   0.0000021272    0.0000029500   -0.0000019937
   0.0000021265   -0.0000029197    0.0000019686
  -0.0000021129   -0.0000011687    0.0000016343
  -0.0000021409   -0.0000011263   -0.0000016187
   0.0000021272   -0.0000029500   -0.0000019937
   0.0000021265    0.0000029197    0.0000019686
  -0.0000021129    0.0000011687    0.0000016343
  -0.0000011851    0.0000180691    0.0000304026
   0.0000037663   -0.0000011439   -0.0000031318
   0.0000038818    0.0000011511    0.0000031197
  -0.0000015178   -0.0000180665   -0.0000308812
  -0.0035847404   -0.0035962239   -0.0035962239
   0.0000403826    0.0000170082    0.0000170082
   0.0000394603   -0.0000165577   -0.0000165577
  -0.0000982134    0.0000714558    0.0000714558
   0.0000016576    0.0000145137    0.0000089470
  -0.0000016995   -0.0000021005   -0.0000007089
  -0.0000016966    0.0000020813    0.0000006961
   0.0000017385   -0.0000146019   -0.0000088924
   0.0000016576   -0.0000145137    0.0000089470
  -0.0000016995    0.0000021005   -0.0000007089
  -0.0000016966   -0.0000020813    0.0000006961
   0.0000017385    0.0000146019   -0.0000088924
  -0.0035847404    0.0035962239   -0.0035962239
   0.0000403826   -0.0000170082    0.0000170082
   0.0000394603    0.0000165577   -0.0000165577
  -0.0000982134   -0.0000714558    0.0000714558
   0.0000016576    0.0000089470    0.0000145137
  -0.0000016995   -0.0000007089   -0.0000021005
  -0.0000016966    0.0000006961    0.0000020813
   0.0000017385   -0.0000088924   -0.0000146019
   0.0000000410   -0.0000009078   -0.0000009078
  -0.0000000382   -0.0000000740   -0.0000000740
  -0.0000000387    0.0000000734    0.0000000734
   0.0000000360    0.0000009225    0.0000009225
   0.0000000410    0.0000009078   -0.0000009078
  -0.0000000382    0.0000000740   -0.0000000740
  -0.0000000387   -0.0000000734    0.0000000734
   0.0000000360   -0.0000009225    0.0000009225
   0.0000016576   -0.0000089470    0.0000145137
  -0.0000016995    0.0000007089   -0.0000021005
  -0.0000016966   -0.0000006961    0.0000020813
   0.0000017385    0.0000088924   -0.0000146019
   0.0000016576    0.0000089470   -0.0000145137
  -0.0000016995   -0.0000007089    0.0000021005
  -0.0000016966    0.0000006961   -0.0000020813
   0.0000017385   -0.0000088924    0.0000146019
   0.0000000410   -0.0000009078    0.0000009078
  -0.0000000382   -0.0000000740    0.0000000740
  -0.0000000387    0.0000000734   -0.0000000734
   0.0000000360    0.0000009225   -0.0000009225
   0.0000000410    0.0000009078    0.0000009078
  -0.0000000382    0.0000000740    0.0000000740
  -0.0000000387   -0.0000000734   -0.0000000734
   0.0000000360   -0.0000009225   -0.0000009225
   0.0000016576   -0.0000089470   -0.0000145137
  -0.0000016995    0.0000007089    0.0000021005
  -0.0000016966   -0.0000006961   -0.0000020813
   0.0000017385    0.0000088924    0.0000146019
  -0.0035847404   -0.0035962239    0.0035962239
   0.0000403826    0.0000170082   -0.0000170082
   0.0000394603   -0.0000165577    0.0000165577
  -0.0000982134    0.0000714558   -0.0000714558
   0.0000016576    0.0000145137   -0.0000089470
  -0.0000016995   -0.0000021005    0.0000007089
  -0.0000016966    0.0000020813   -0.0000006961
   0.0000017385   -0.0000146019    0.0000088924
   0.0000016576   -0.0000145137   -0.0000089470
  -0.0000016995    0.0000021005    0.0000007089
  -0.0000016966   -0.0000020813   -0.0000006961
   0.0000017385    0.0000146019    0.0000088924
  -0.0035847404    0.0035962239    0.0035962239
   0.0000403826   -0.0000170082   -0.0000170082
   0.0000394603    0.0000165577    0.0000165577
  -0.0000982134   -0.0000714558   -0.0000714558
   0.0756616715    0.0000000000    0.0000000000
   0.0000737412    0.0000000000    0.0000000000
   0.0000719257    0.0000000000    0.0000000000
   0.0605366686    0.0000000000    0.0000000000
  -0.0000157991    0.0000729270    0.0000000000
   0.0000188574    0.0000158963    0.0000000000
   0.0000183562   -0.0000154588    0.0000000000
  -0.0000150995   -0.0000726430    0.0000000000
   0.0000010799    0.0000000000    0.0000000000
  -0.0000010807    0.0000000000    0.0000000000
  -0.0000010682    0.0000000000    0.0000000000
   0.0000010691    0.0000000000    0.0000000000
  -0.0000157991   -0.0000729270    0.0000000000
   0.0000188574   -0.0000158963    0.0000000000
   0.0000183562    0.0000154588    0.0000000000
  -0.0000150995    0.0000726430    0.0000000000
  -0.0000157991    0.0000000000    0.0000729270
   0.0000188574    0.0000000000    0.0000158963
   0.0000183562    0.0000000000   -0.0000154588
  -0.0000150995    0.0000000000   -0.0000726430
   0.0000021927    0.0000233159    0.0000233159
  -0.0000022845   -0.0000020027   -0.0000020027
  -0.0000022839    0.0000019803    0.0000019803
   0.0000023757   -0.0000235744   -0.0000235744
   0.0000000536    0.0000000000   -0.0000009956
  -0.0000000499    0.0000000000   -0.0000000489
  -0.0000000503    0.0000000000    0.0000000481
   0.0000000466    0.0000000000    0.0000010028
   0.0000021927   -0.0000233159    0.0000233159
  -0.0000022845    0.0000020027   -0.0000020027
  -0.0000022839   -0.0000019803    0.0000019803
   0.0000023757    0.0000235744   -0.0000235744
   0.0000010799    0.0000000000    0.0000000000
  -0.0000010807    0.0000000000    0.0000000000
  -0.0000010682    0.0000000000    0.0000000000
   0.0000010691    0.0000000000    0.0000000000
   0.0000000536   -0.0000009956    0.0000000000
  -0.0000000499   -0.0000000489    0.0000000000
  -0.0000000503    0.0000000481    0.0000000000
   0.0000000466    0.0000010028    0.0000000000
  -0.0000000000    0.0000000000    0.0000000000
  -0.0000000000    0.0000000000    0.0000000000
  -0.0000000000    0.0000000000    0.0000000000
  -0.0000000000    0.0000000000    0.0000000000
   0.0000000536    0.0000009956    0.0000000000
  -0.0000000499    0.0000000489    0.0000000000
  -0.0000000503   -0.0000000481    0.0000000000
   0.0000000466   -0.0000010028    0.0000000000
  -0.0000157991    0.0000000000   -0.0000729270
   0.0000188574    0.0000000000   -0.0000158963
   0.0000183562    0.0000000000    0.0000154588
  -0.0000150995    0.0000000000    0.0000726430
   0.0000021927    0.0000233159   -0.0000233159
  -0.0000022845   -0.0000020027    0.0000020027
  -0.0000022839    0.0000019803   -0.0000019803
   0.0000023757   -0.0000235744    0.0000235744
   0.0000000536    0.0000000000    0.0000009956
  -0.0000000499    0.0000000000    0.0000000489
  -0.0000000503    0.0000000000   -0.0000000481
   0.0000000466    0.0000000000   -0.0000010028
   0.0000021927   -0.0000233159   -0.0000233159
  -0.0000022845    0.0000020027    0.0000020027
  -0.0000022839   -0.0000019803   -0.0000019803
   0.0000023757    0.0000235744    0.0000235744
   0.0072522354   -0.0003220938    0.0000000000
   0.0000861786    0.0000601956    0.0000000000
   0.0000019020   -0.0000000070    0.0000000000
   0.0000862247   -0.0000589259    0.0000000000
  -0.0000163689   -0.0000000306    0.0000000000
   0.0000091507    0.0000132884    0.0000000000
  -0.0000018532   -0.0000000182    0.0000000000
   0.0000090714   -0.0000131058    0.0000000000
  -0.0000163689    0.0000000306    0.0000000000
   0.0000091507   -0.0000132884    0.0000000000
  -0.0000018532    0.0000000182    0.0000000000
   0.0000090714    0.0000131058    0.0000000000
   0.0072522354    0.0003220938    0.0000000000
   0.0000861786   -0.0000601956    0.0000000000
   0.0000019020    0.0000000070    0.0000000000
   0.0000862247    0.0000589259    0.0000000000
  -0.0000633671    0.0000001078   -0.0000001402
   0.0000305232    0.0000267889    0.0000428489
  -0.0000042692   -0.0000000127   -0.0000000241
   0.0000306500   -0.0000262887   -0.0000424483
   0.0000014998   -0.0000000619   -0.0000000472
  -0.0000006692   -0.0000021971   -0.0000016504
  -0.0000001472   -0.0000000011   -0.0000000007
  -0.0000006834    0.0000021921    0.0000016392
   0.0000014998    0.0000000619   -0.0000000472
  -0.0000006692    0.0000021971   -0.0000016504
  -0.0000001472    0.0000000011   -0.0000000007
  -0.0000006834   -0.0000021921    0.0000016392
  -0.0000633671   -0.0000001078   -0.0000001402
   0.0000305232   -0.0000267889    0.0000428489
  -0.0000042692    0.0000000127   -0.0000000241
   0.0000306500    0.0000262887   -0.0000424483
   0.0000016645   -0.0000000027    0.0000000000
  -0.0000007798   -0.0000008634    0.0000000000
  -0.0000000939   -0.0000000000    0.0000000000
  -0.0000007909    0.0000008514    0.0000000000
   0.0000000000    0.0000000046    0.0000000000
   0.0000000002   -0.0000000483    0.0000000000
   0.0000000000   -0.0000000000    0.0000000000
  -0.0000000002    0.0000000488    0.0000000000
   0.0000000000   -0.0000000046    0.0000000000
   0.0000000002    0.0000000483    0.0000000000
   0.0000000000   -0.0000000000    0.0000000000
  -0.0000000002   -0.0000000488    0.0000000000
   0.0000016645    0.0000000027    0.0000000000
  -0.0000007798    0.0000008634    0.0000000000
  -0.0000000939   -0.0000000000    0.0000000000
  -0.0000007909   -0.0000008514    0.0000000000
  -0.0000633671    0.0000001078    0.0000001402
   0.0000305232    0.0000267889   -0.0000428489
  -0.0000042692   -0.0000000127    0.0000000241
   0.0000306500   -0.0000262887    0.0000424483
   0.0000014998   -0.0000000619    0.0000000472
  -0.0000006692   -0.0000021971    0.0000016504
  -0.0000001472   -0.0000000011    0.0000000007
  -0.0000006834    0.0000021921   -0.0000016392
   0.0000014998    0.0000000619    0.0000000472
  -0.0000006692    0.0000021971    0.0000016504
  -0.0000001472    0.0000000011    0.0000000007
  -0.0000006834   -0.0000021921   -0.0000016392
  -0.0000633671   -0.0000001078    0.0000001402
   0.0000305232   -0.0000267889   -0.0000428489
  -0.0000042692    0.0000000127    0.0000000241
   0.0000306500    0.0000262887    0.0000424483
   0.0072522354    0.0000000000   -0.0003220938
   0.0000861786    0.0000000000    0.0000601956
   0.0000019020    0.0000000000   -0.0000000070
   0.0000862247    0.0000000000   -0.0000589259
  -0.0000633671   -0.0000001402    0.0000001078
   0.0000305232    0.0000428489    0.0000267889
  -0.0000042692   -0.0000000241   -0.0000000127
   0.0000306500   -0.0000424483   -0.0000262887
   0.0000016645    0.0000000000   -0.0000000027
  -0.0000007798    0.0000000000   -0.0000008634
  -0.0000000939    0.0000000000   -0.0000000000
  -0.0000007909    0.0000000000    0.0000008514
  -0.0000633671    0.0000001402    0.0000001078
   0.0000305232   -0.0000428489    0.0000267889
  -0.0000042692    0.0000000241   -0.0000000127
   0.0000306500    0.0000424483   -0.0000262887
  -0.0000163689    0.0000000000   -0.0000000306
   0.0000091507    0.0000000000    0.0000132884
  -0.0000018532    0.0000000000   -0.0000000182
   0.0000090714    0.0000000000   -0.0000131058
   0.0000014998   -0.0000000472   -0.0000000619
  -0.0000006692   -0.0000016504   -0.0000021971
  -0.0000001472   -0.0000000007   -0.0000000011
  -0.0000006834    0.0000016392    0.0000021921
   0.0000000000    0.0000000000    0.0000000046
   0.0000000002    0.0000000000   -0.0000000483
   0.0000000000    0.0000000000   -0.0000000000
  -0.0000000002    0.0000000000    0.0000000488
   0.0000014998    0.0000000472   -0.0000000619
  -0.0000006692    0.0000016504   -0.0000021971
  -0.0000001472    0.0000000007   -0.0000000011
  -0.0000006834   -0.0000016392    0.0000021921
  -0.0000163689    0.0000000000    0.0000000306
   0.0000091507    0.0000000000   -0.0000132884
  -0.0000018532    0.0000000000    0.0000000182
   0.0000090714    0.0000000000    0.0000131058
   0.0000014998   -0.0000000472    0.0000000619
  -0.0000006692   -0.0000016504    0.0000021971
  -0.0000001472   -0.0000000007    0.0000000011
  -0.0000006834    0.0000016392   -0.0000021921
   0.0000000000    0.0000000000   -0.0000000046
   0.0000000002    0.0000000000    0.0000000483
   0.0000000000    0.0000000000   -0.0000000000
  -0.0000000002    0.0000000000   -0.0000000488
   0.0000014998    0.0000000472    0.0000000619
  -0.0000006692    0.0000016504    0.0000021971
  -0.0000001472    0.0000000007    0.0000000011
  -0.0000006834   -0.0000016392   -0.0000021921
   0.0072522354    0.0000000000    0.0003220938
   0.0000861786    0.0000000000   -0.0000601956
   0.0000019020    0.0000000000    0.0000000070
   0.0000862247    0.0000000000    0.0000589259
  -0.0000633671   -0.0000001402   -0.0000001078
   0.0000305232    0.0000428489   -0.0000267889
  -0.0000042692   -0.0000000241    0.0000000127
   0.0000306500   -0.0000424483    0.0000262887
   0.0000016645    0.0000000000    0.0000000027
  -0.0000007798    0.0000000000    0.0000008634
  -0.0000000939    0.0000000000   -0.0000000000
  -0.0000007909    0.0000000000   -0.0000008514
  -0.0000633671    0.0000001402   -0.0000001078
   0.0000305232   -0.0000428489   -0.0000267889
  -0.0000042692    0.0000000241    0.0000000127
   0.0000306500    0.0000424483    0.0000262887

257  
  0.0300000000000000   0.0000000000000000   0.0000000000000000
  -0.0000988781   -0.0000717857   -0.0000717857
  -0.0035840838    0.0035958954    0.0035958954
   0.0000402931   -0.0000147385   -0.0000147385
   0.0000395505    0.0000143804    0.0000143804
  -0.0000988781    0.0000717857   -0.0000717857
  -0.0035840838   -0.0035958954    0.0035958954
   0.0000402931    0.0000147385   -0.0000147385
   0.0000395505   -0.0000143804    0.0000143804
   0.0000017436   -0.0000167928    0.0000088918
   0.0000016523    0.0000167717   -0.0000089480
  -0.0000016965   -0.0000020961    0.0000009236
  -0.0000016995    0.0000020856   -0.0000009068
   0.0000017436    0.0000167928    0.0000088918
   0.0000016523   -0.0000167717   -0.0000089480
  -0.0000016965    0.0000020961    0.0000009236
  -0.0000016995   -0.0000020856   -0.0000009068
  -0.0000988781   -0.0000717857    0.0000717857
  -0.0035840838    0.0035958954   -0.0035958954
   0.0000402931   -0.0000147385    0.0000147385
   0.0000395505    0.0000143804   -0.0000143804
  -0.0000988781    0.0000717857    0.0000717857
  -0.0035840838   -0.0035958954   -0.0035958954
   0.0000402931    0.0000147385    0.0000147385
   0.0000395505   -0.0000143804   -0.0000143804
   0.0000017436   -0.0000167928   -0.0000088918
   0.0000016523    0.0000167717    0.0000089480
  -0.0000016965   -0.0000020961   -0.0000009236
  -0.0000016995    0.0000020856    0.0000009068
   0.0000017436    0.0000167928   -0.0000088918
   0.0000016523   -0.0000167717    0.0000089480
  -0.0000016965    0.0000020961   -0.0000009236
  -0.0000016995   -0.0000020856    0.0000009068
   0.0000017436    0.0000088918   -0.0000167928
   0.0000016523   -0.0000089480    0.0000167717
  -0.0000016965    0.0000009236   -0.0000020961
  -0.0000016995   -0.0000009068    0.0000020856
   0.0000017436   -0.0000088918   -0.0000167928
   0.0000016523    0.0000089480    0.0000167717
  -0.0000016965   -0.0000009236   -0.0000020961
  -0.0000016995    0.0000009068    0.0000020856
   0.0000000352    0.0000007130    0.0000007130
   0.0000000417   -0.0000006920   -0.0000006920
  -0.0000000382   -0.0000000740   -0.0000000740
  -0.0000000387    0.0000000734    0.0000000734
   0.0000000352   -0.0000007130    0.0000007130
   0.0000000417    0.0000006920   -0.0000006920
  -0.0000000382    0.0000000740   -0.0000000740
  -0.0000000387   -0.0000000734    0.0000000734
   0.0000017436    0.0000088918    0.0000167928
   0.0000016523   -0.0000089480   -0.0000167717
  -0.0000016965    0.0000009236    0.0000020961
  -0.0000016995   -0.0000009068   -0.0000020856
   0.0000017436   -0.0000088918    0.0000167928
   0.0000016523    0.0000089480   -0.0000167717
  -0.0000016965   -0.0000009236    0.0000020961
  -0.0000016995    0.0000009068   -0.0000020856
   0.0000000352    0.0000007130   -0.0000007130
   0.0000000417   -0.0000006920    0.0000006920
  -0.0000000382   -0.0000000740    0.0000000740
  -0.0000000387    0.0000000734   -0.0000000734
   0.0000000352   -0.0000007130   -0.0000007130
   0.0000000417    0.0000006920    0.0000006920
  -0.0000000382    0.0000000740    0.0000000740
  -0.0000000387   -0.0000000734   -0.0000000734
   0.0605360550    0.0000000000    0.0000000000
   0.0756622805   -0.0000000000   -0.0000000000
   0.0000734186   -0.0000000000   -0.0000000000
   0.0000722469   -0.0000000000   -0.0000000000
  -0.0000153476   -0.0000590348    0.0000000000
  -0.0000155502    0.0000600965   -0.0000000000
   0.0000188103    0.0000133753   -0.0000000000
   0.0000184042   -0.0000130221   -0.0000000000
   0.0000010755   -0.0000000000    0.0000000000
   0.0000010734   -0.0000000000   -0.0000000000
  -0.0000010807   -0.0000000000   -0.0000000000
  -0.0000010682   -0.0000000000   -0.0000000000
  -0.0000153476    0.0000590348   -0.0000000000
  -0.0000155502   -0.0000600965   -0.0000000000
   0.0000188103   -0.0000133753   -0.0000000000
   0.0000184042    0.0000130221   -0.0000000000
  -0.0000153476    0.0000000000   -0.0000590348
  -0.0000155502   -0.0000000000    0.0000600965
   0.0000188103   -0.0000000000    0.0000133753
   0.0000184042   -0.0000000000   -0.0000130221
   0.0000023798   -0.0000265543   -0.0000265543
   0.0000021883    0.0000265229    0.0000265229
  -0.0000022754   -0.0000022016   -0.0000022016
  -0.0000022928    0.0000021874    0.0000021874
   0.0000000459   -0.0000000000    0.0000008632
   0.0000000544   -0.0000000000   -0.0000008517
  -0.0000000499   -0.0000000000   -0.0000000489
  -0.0000000503   -0.0000000000    0.0000000481
   0.0000023798    0.0000265543   -0.0000265543
   0.0000021883   -0.0000265229    0.0000265229
  -0.0000022754    0.0000022016   -0.0000022016
  -0.0000022928   -0.0000021874    0.0000021874
   0.0000010755    0.0000000000   -0.0000000000
   0.0000010734   -0.0000000000   -0.0000000000
  -0.0000010807   -0.0000000000   -0.0000000000
  -0.0000010682   -0.0000000000   -0.0000000000
   0.0000000459    0.0000008632   -0.0000000000
   0.0000000544   -0.0000008517   -0.0000000000
  -0.0000000499   -0.0000000489   -0.0000000000
  -0.0000000503    0.0000000481   -0.0000000000
   0.0000000000   -0.0000000000   -0.0000000000
  -0.0000000000   -0.0000000000   -0.0000000000
   0.0000000000   -0.0000000000   -0.0000000000
   0.0000000000   -0.0000000000   -0.0000000000
   0.0000000459   -0.0000008632   -0.0000000000