nqpoint: 1      
npath: 1      
segment_nqpoint:
- 1
reciprocal_lattice:
- [   0.25011959,  -0.14440661,  -0.10211090 ] # a*
- [   0.00000000,   0.28881323,  -0.10211090 ] # b*
- [   0.00000000,  -0.00000000,   0.30633269 ] # c*
natom: 2      
lattice:
- [     3.998087430433594,    -0.000000000000381,    -0.000000000000269 ] # a
- [     1.999043715266137,     3.462445281334601,     0.000000000000099 ] # b
- [     1.999043715266137,     1.154148427078513,     3.264424717202195 ] # c
points:
- symbol: Na # 1
  coordinates: [  0.000000000000000,  0.000000000000000,  0.000000000000000 ]
  mass: 22.989769
- symbol: Cl # 2
  coordinates: [  0.500000000000000,  0.500000000000000,  0.500000000000000 ]
  mass: 35.453000

phonon:
- q-position: [    0.0000000,    0.0000000,    0.0000000 ]
  distance:    0.0000000
  band:
  - # 1
    frequency:   -0.0000000550
    eigenvector:
    - # atom 1
      - [ -0.03820514035428,  0.00000000000000 ]
      - [  0.23087089642938,  0.00000000000000 ]
      - [  0.58190320741706,  0.00000000000000 ]
    - # atom 2
      - [ -0.04744396626366,  0.00000000000000 ]
      - [  0.28670045234708,  0.00000000000000 ]
      - [  0.72261993767076,  0.00000000000000 ]
  - # 2
    frequency:    0.0000000162
    eigenvector:
    - # atom 1
      - [  0.15181674844308,  0.00000000000000 ]
      - [ -0.56216661485222,  0.00000000000000 ]
      - [  0.23300797927917,  0.00000000000000 ]
    - # atom 2
      - [  0.18852930848279,  0.00000000000000 ]
      - [ -0.69811061188019,  0.00000000000000 ]
      - [  0.28935432786338,  0.00000000000000 ]
  - # 3
    frequency:    0.0000000802
    eigenvector:
    - # atom 1
      - [  0.60734206877982,  0.00000000000000 ]
      - [  0.15504732405637,  0.00000000000000 ]
      - [ -0.02163989741511,  0.00000000000000 ]
    - # atom 2
      - [  0.75421046369107,  0.00000000000000 ]
      - [  0.19254110686992,  0.00000000000000 ]
      - [ -0.02687289075028,  0.00000000000000 ]
  - # 4
    frequency:    4.5694489960
    eigenvector:
    - # atom 1
      - [  0.02204339542534,  0.00000000000000 ]
      - [ -0.32987629615258,  0.00000000000000 ]
      - [  0.70521157930395,  0.00000000000000 ]
    - # atom 2
      - [ -0.01775085606028,  0.00000000000000 ]
      - [  0.26563905142254,  0.00000000000000 ]
      - [ -0.56788480155650,  0.00000000000000 ]
  - # 5
    frequency:    4.5694489960
    eigenvector:
    - # atom 1
      - [  0.14039697295982, -0.00000000000000 ]
      - [ -0.69224401495647,  0.00000000000000 ]
      - [ -0.32819897527429,  0.00000000000000 ]
    - # atom 2
      - [ -0.11305728588340,  0.00000000000000 ]
      - [  0.55744242805732,  0.00000000000000 ]
      - [  0.26428835744279,  0.00000000000000 ]
  - # 6
    frequency:    4.5694489960
    eigenvector:
    - # atom 1
      - [ -0.76578745898243,  0.00000000000000 ]
      - [ -0.13640933481274,  0.00000000000000 ]
      - [ -0.03987122614578,  0.00000000000000 ]
    - # atom 2
      - [  0.61666466056106,  0.00000000000000 ]
      - [  0.10984616575209,  0.00000000000000 ]
      - [  0.03210704987214,  0.00000000000000 ]

