nqpoint: 1      
npath: 1      
segment_nqpoint:
- 1
reciprocal_lattice:
- [   0.25011959,  -0.14440661,  -0.10211090 ] # a*
- [   0.00000000,   0.28881323,  -0.10211090 ] # b*
- [   0.00000000,  -0.00000000,   0.30633269 ] # c*
natom: 2      
lattice:
- [     3.998087430433594,    -0.000000000000381,    -0.000000000000269 ] # a
- [     1.999043715266137,     3.462445281334601,     0.000000000000099 ] # b
- [     1.999043715266137,     1.154148427078513,     3.264424717202195 ] # c
points:
- symbol: Na # 1
  coordinates: [  0.000000000000000,  0.000000000000000,  0.000000000000000 ]
  mass: 22.989769
- symbol: Cl # 2
  coordinates: [  0.500000000000000,  0.500000000000000,  0.500000000000000 ]
  mass: 35.453000

phonon:
- q-position: [    0.0000000,    0.0000000,    0.0000000 ]
  distance:    0.0000000
  band:
  - # 1
    frequency:   -0.0000000775
    eigenvector:
    - # atom 1
      - [ -0.31515137417238,  0.00000000000000 ]
      - [ -0.53709884620169,  0.00000000000000 ]
      - [ -0.07467788919195,  0.00000000000000 ]
    - # atom 2
      - [ -0.39136176508393,  0.00000000000000 ]
      - [ -0.66698091679108,  0.00000000000000 ]
      - [ -0.09273661142629,  0.00000000000000 ]
  - # 2
    frequency:   -0.0000000236
    eigenvector:
    - # atom 1
      - [ -0.16630423423200,  0.00000000000000 ]
      - [  0.01351947180021,  0.00000000000000 ]
      - [  0.60459281498302,  0.00000000000000 ]
    - # atom 2
      - [ -0.20652018040766,  0.00000000000000 ]
      - [  0.01678877130334,  0.00000000000000 ]
      - [  0.75079638109954,  0.00000000000000 ]
  - # 3
    frequency:    0.0000000386
    eigenvector:
    - # atom 1
      - [  0.51613453614426, -0.00000000000000 ]
      - [ -0.32359604395080,  0.00000000000000 ]
      - [  0.14920820120524,  0.00000000000000 ]
    - # atom 2
      - [  0.64094698497434,  0.00000000000000 ]
      - [ -0.40184853791585,  0.00000000000000 ]
      - [  0.18528995833243,  0.00000000000000 ]
  - # 4
    frequency:    4.5694489960
    eigenvector:
    - # atom 1
      - [  0.02204331573664,  0.00000000000000 ]
      - [ -0.32981155225187,  0.00000000000000 ]
      - [  0.70524186337890,  0.00000000000000 ]
    - # atom 2
      - [ -0.01775079188946,  0.00000000000000 ]
      - [  0.26558691518671,  0.00000000000000 ]
      - [ -0.56790918837373,  0.00000000000000 ]
  - # 5
    frequency:    4.5694489960
    eigenvector:
    - # atom 1
      - [  0.14044916568944, -0.00000000000000 ]
      - [ -0.69226485023452,  0.00000000000000 ]
      - [ -0.32813269056488,  0.00000000000000 ]
    - # atom 2
      - [ -0.11309931505418,  0.00000000000000 ]
      - [  0.55745920605430,  0.00000000000000 ]
      - [  0.26423498044197,  0.00000000000000 ]
  - # 6
    frequency:    4.5694489960
    eigenvector:
    - # atom 1
      - [ -0.76577789059322,  0.00000000000000 ]
      - [ -0.13646014349049,  0.00000000000000 ]
      - [ -0.03988113777644,  0.00000000000000 ]
    - # atom 2
      - [  0.61665695543685,  0.00000000000000 ]
      - [  0.10988708038924,  0.00000000000000 ]
      - [  0.03211503139794,  0.00000000000000 ]

