54   
2    

1    
  0.0100000000000000  -0.0000000000000010  -0.0000000000000007
  -0.0188946617    0.0000000024    0.0000000017
   0.0026260657    0.0000000007    0.0000000005
   0.0026167127    0.0000000007    0.0000000005
   0.0000779177    0.0014707020    0.0006409802
  -0.0000515916    0.0000025836   -0.0000002423
   0.0000828478   -0.0014633743   -0.0006383780
   0.0000828487    0.0014633769    0.0006383788
   0.0000779168   -0.0014706994   -0.0006409794
  -0.0000515916   -0.0000025826    0.0000002419
   0.0000779177    0.0010945560    0.0011729311
  -0.0000515916    0.0000006328    0.0000025165
   0.0000828478   -0.0010896599   -0.0011668899
   0.0002366504   -0.0001655195   -0.0001170400
   0.0002342986    0.0001659197    0.0001173229
   0.0000178870   -0.0000051145   -0.0000036165
  -0.0018111782   -0.0000024894    0.0000035220
   0.0009985220   -0.0005677279    0.0008028887
   0.0009742955    0.0005504385   -0.0007784374
   0.0000828487    0.0010896616    0.0011668921
   0.0000779168   -0.0010945543   -0.0011729289
  -0.0000515916   -0.0000006328   -0.0000025155
  -0.0018111782    0.0000024907   -0.0000035210
   0.0009985220    0.0005677281   -0.0008028885
   0.0009742955   -0.0005504383    0.0007784376
   0.0002342995   -0.0001659193   -0.0001173227
   0.0000178871    0.0000051155    0.0000036172
   0.0002366494    0.0001655199    0.0001170403
  -0.0006445051   -0.0006615471   -0.0004677845
  -0.0006439549    0.0006599915    0.0004666845
   0.0019201479    0.0000036746    0.0000025984
   0.0005002488   -0.0000034674    0.0000032000
  -0.0002744174    0.0003099764   -0.0000578487
  -0.0002682191   -0.0003112540    0.0000492817
   0.0032095171   -0.0007423642    0.0010498586
  -0.0008093059    0.0000030965   -0.0000043793
   0.0030808139    0.0006726213   -0.0009512331
   0.0005002488    0.0000018612   -0.0000043358
  -0.0002744174    0.0000487852    0.0003115315
  -0.0002682190   -0.0000572881   -0.0003098803
  -0.0001787679   -0.0000000000   -0.0000000000
   0.0002172272    0.0000000001    0.0000000001
  -0.0001800976   -0.0000000000   -0.0000000000
  -0.0002744183   -0.0000487856   -0.0003115328
  -0.0002682181    0.0000572877    0.0003098790
   0.0005002488   -0.0000018617    0.0000043344
   0.0032095171    0.0007423615   -0.0010498606
  -0.0008093059   -0.0000030967    0.0000043792
   0.0030808139   -0.0006726241    0.0009512311
  -0.0002744183   -0.0003099778    0.0000578487
  -0.0002682181    0.0003112526   -0.0000492816
   0.0005002488    0.0000034659   -0.0000032000
   0.0019201479   -0.0000036782   -0.0000026009
  -0.0006445042    0.0006615460    0.0004677837
  -0.0006439559   -0.0006599926   -0.0004666852

28   
  0.0100000000000000  -0.0000000000000010  -0.0000000000000007
  -0.0006414628   -0.0006568760   -0.0004644814
   0.0019198159   -0.0000127943   -0.0000090469
  -0.0006462071    0.0006641538    0.0004696277
   0.0030728088   -0.0006659282    0.0009417617
   0.0032179473    0.0007496627   -0.0010601861
  -0.0008094053   -0.0000034285    0.0000048485
   0.0005002514    0.0000010450    0.0000013821
  -0.0002701698   -0.0003101606    0.0000540978
  -0.0002726348    0.0003110212   -0.0000529493
   0.0030728088    0.0006659254   -0.0009417637
   0.0032179473   -0.0007496654    0.0010601841
  -0.0008094053    0.0000034284   -0.0000048486
   0.0019198159    0.0000127907    0.0000090444
  -0.0006462080   -0.0006641549   -0.0004696285
  -0.0006414619    0.0006568749    0.0004644807
  -0.0002726357   -0.0003110225    0.0000529493
   0.0005002514   -0.0000010465   -0.0000013821
  -0.0002701689    0.0003101593   -0.0000540978
   0.0005002514    0.0000016514    0.0000005245
  -0.0002701698   -0.0000523830   -0.0003104549
  -0.0002726348    0.0000537527    0.0003108833
  -0.0002726357   -0.0000537531   -0.0003108846
   0.0005002514   -0.0000016519   -0.0000005259
  -0.0002701689    0.0000523826    0.0003104536
  -0.0001802350   -0.0000000000   -0.0000000000
  -0.0001786280   -0.0000000000   -0.0000000000
   0.0002172408    0.0000000001    0.0000000001
  -0.0240123833    0.0000000024    0.0000000017
   0.0042387087    0.0000000007    0.0000000005
   0.0042171163    0.0000000007    0.0000000005
   0.0004281680    0.0021875174   -0.0000001619
   0.0000737966    0.0000028770    0.0000002712
   0.0004438300   -0.0021906170   -0.0000010849
   0.0004438310    0.0021906196    0.0000010857
   0.0004281670   -0.0021875148    0.0000001627
   0.0000737966   -0.0000028761   -0.0000002716
   0.0004281680    0.0007290198    0.0020624652
   0.0000737966    0.0000012147    0.0000026221
   0.0004438300   -0.0007312285   -0.0020649719
   0.0003054986   -0.0001341009   -0.0000948236
   0.0003082071    0.0001349328    0.0000954119
  -0.0002833789   -0.0000060189   -0.0000042560
  -0.0008286071    0.0000050902   -0.0000071973
   0.0002083802   -0.0002897029    0.0004097020
   0.0002190108    0.0002841856   -0.0004018988
   0.0004438310    0.0007312302    0.0020649741
   0.0004281670   -0.0007290182   -0.0020624630
   0.0000737966   -0.0000012147   -0.0000026211
  -0.0008286071   -0.0000050889    0.0000071982
   0.0002083802    0.0002897031   -0.0004097018
   0.0002190108   -0.0002841853    0.0004018990
   0.0003082080   -0.0001349324   -0.0000954116
  -0.0002833789    0.0000060199    0.0000042567
   0.0003054976    0.0001341013    0.0000948239
