phonopy:
  version: 1.13.2
  configuration:
    dim: "4 4 4"
    create_displacements: ".true."

supercell_matrix:
- [   4,   0,   0 ]
- [   0,   4,   0 ]
- [   0,   0,   4 ]

space_group:
  type: "F-43m"
  number: 216
  Hall_symbol: "F -4 2 3"

primitive_cell:
  lattice:
  - [     3.406152481589107,     0.000000000000027,     0.000000000000019 ] # a
  - [     1.703076240744600,     2.949814578193724,     0.000000000000026 ] # b
  - [     1.703076240744600,     0.983271526031281,     2.781111855275427 ] # c
  points:
  - symbol: B  # 1
    coordinates: [  0.750000000000000,  0.750000000000000,  0.750000000000000 ]
    mass: 10.811000
  - symbol: As # 2
    coordinates: [  0.000000000000000,  0.000000000000000,  0.000000000000000 ]
    mass: 74.921600
  reciprocal_lattice: # without 2pi
  - [     0.293586386811863,    -0.169502179452751,    -0.119856140520530 ] # a*
  - [    -0.000000000000002,     0.339004358915448,    -0.119856140517956 ] # b*
  - [    -0.000000000000002,    -0.000000000000002,     0.359568421566047 ] # c*

unit_cell:
  lattice:
  - [     3.406152481589107,     0.000000000000027,     0.000000000000019 ] # a
  - [     1.703076240744600,     2.949814578193724,     0.000000000000026 ] # b
  - [     1.703076240744600,     0.983271526031281,     2.781111855275427 ] # c
  points:
  - symbol: B  # 1
    coordinates: [  0.750000000000000,  0.750000000000000,  0.750000000000000 ]
    mass: 10.811000
    reduced_to: 1
  - symbol: As # 2
    coordinates: [ -0.000000000000000, -0.000000000000000,  0.000000000000000 ]
    mass: 74.921600
    reduced_to: 2

supercell:
  lattice:
  - [    13.624609926356429,     0.000000000000107,     0.000000000000076 ] # a
  - [     6.812304962978399,    11.799258312774894,     0.000000000000103 ] # b
  - [     6.812304962978399,     3.933086104125123,    11.124447421101710 ] # c
  points:
  - symbol: B  # 1
    coordinates: [  0.187500000000000,  0.187500000000000,  0.187500000000000 ]
    mass: 10.811000
    reduced_to: 1
  - symbol: B  # 2
    coordinates: [  0.437500000000000,  0.187500000000000,  0.187500000000000 ]
    mass: 10.811000
    reduced_to: 1
  - symbol: B  # 3
    coordinates: [  0.687500000000000,  0.187500000000000,  0.187500000000000 ]
    mass: 10.811000
    reduced_to: 1
  - symbol: B  # 4
    coordinates: [  0.937500000000000,  0.187500000000000,  0.187500000000000 ]
    mass: 10.811000
    reduced_to: 1
  - symbol: B  # 5
    coordinates: [  0.187500000000000,  0.437500000000000,  0.187500000000000 ]
    mass: 10.811000
    reduced_to: 1
  - symbol: B  # 6
    coordinates: [  0.437500000000000,  0.437500000000000,  0.187500000000000 ]
    mass: 10.811000
    reduced_to: 1
  - symbol: B  # 7
    coordinates: [  0.687500000000000,  0.437500000000000,  0.187500000000000 ]
    mass: 10.811000
    reduced_to: 1
  - symbol: B  # 8
    coordinates: [  0.937500000000000,  0.437500000000000,  0.187500000000000 ]
    mass: 10.811000
    reduced_to: 1
  - symbol: B  # 9
    coordinates: [  0.187500000000000,  0.687500000000000,  0.187500000000000 ]
    mass: 10.811000
    reduced_to: 1
  - symbol: B  # 10
    coordinates: [  0.437500000000000,  0.687500000000000,  0.187500000000000 ]
    mass: 10.811000
    reduced_to: 1
  - symbol: B  # 11
    coordinates: [  0.687500000000000,  0.687500000000000,  0.187500000000000 ]
    mass: 10.811000
    reduced_to: 1
  - symbol: B  # 12
    coordinates: [  0.937500000000000,  0.687500000000000,  0.187500000000000 ]
    mass: 10.811000
    reduced_to: 1
  - symbol: B  # 13
    coordinates: [  0.187500000000000,  0.937500000000000,  0.187500000000000 ]
    mass: 10.811000
    reduced_to: 1
  - symbol: B  # 14
    coordinates: [  0.437500000000000,  0.937500000000000,  0.187500000000000 ]
    mass: 10.811000
    reduced_to: 1
  - symbol: B  # 15
    coordinates: [  0.687500000000000,  0.937500000000000,  0.187500000000000 ]
    mass: 10.811000
    reduced_to: 1
  - symbol: B  # 16
    coordinates: [  0.937500000000000,  0.937500000000000,  0.187500000000000 ]
    mass: 10.811000
    reduced_to: 1
  - symbol: B  # 17
    coordinates: [  0.187500000000000,  0.187500000000000,  0.437500000000000 ]
    mass: 10.811000
    reduced_to: 1
  - symbol: B  # 18
    coordinates: [  0.437500000000000,  0.187500000000000,  0.437500000000000 ]
    mass: 10.811000
    reduced_to: 1
  - symbol: B  # 19
    coordinates: [  0.687500000000000,  0.187500000000000,  0.437500000000000 ]
    mass: 10.811000
    reduced_to: 1
  - symbol: B  # 20
    coordinates: [  0.937500000000000,  0.187500000000000,  0.437500000000000 ]
    mass: 10.811000
    reduced_to: 1
  - symbol: B  # 21
    coordinates: [  0.187500000000000,  0.437500000000000,  0.437500000000000 ]
    mass: 10.811000
    reduced_to: 1
  - symbol: B  # 22
    coordinates: [  0.437500000000000,  0.437500000000000,  0.437500000000000 ]
    mass: 10.811000
    reduced_to: 1
  - symbol: B  # 23
    coordinates: [  0.687500000000000,  0.437500000000000,  0.437500000000000 ]
    mass: 10.811000
    reduced_to: 1
  - symbol: B  # 24
    coordinates: [  0.937500000000000,  0.437500000000000,  0.437500000000000 ]
    mass: 10.811000
    reduced_to: 1
  - symbol: B  # 25
    coordinates: [  0.187500000000000,  0.687500000000000,  0.437500000000000 ]
    mass: 10.811000
    reduced_to: 1
  - symbol: B  # 26
    coordinates: [  0.437500000000000,  0.687500000000000,  0.437500000000000 ]
    mass: 10.811000
    reduced_to: 1
  - symbol: B  # 27
    coordinates: [  0.687500000000000,  0.687500000000000,  0.437500000000000 ]
    mass: 10.811000
    reduced_to: 1
  - symbol: B  # 28
    coordinates: [  0.937500000000000,  0.687500000000000,  0.437500000000000 ]
    mass: 10.811000
    reduced_to: 1
  - symbol: B  # 29
    coordinates: [  0.187500000000000,  0.937500000000000,  0.437500000000000 ]
    mass: 10.811000
    reduced_to: 1
  - symbol: B  # 30
    coordinates: [  0.437500000000000,  0.937500000000000,  0.437500000000000 ]
    mass: 10.811000
    reduced_to: 1
  - symbol: B  # 31
    coordinates: [  0.687500000000000,  0.937500000000000,  0.437500000000000 ]
    mass: 10.811000
    reduced_to: 1
  - symbol: B  # 32
    coordinates: [  0.937500000000000,  0.937500000000000,  0.437500000000000 ]
    mass: 10.811000
    reduced_to: 1
  - symbol: B  # 33
    coordinates: [  0.187500000000000,  0.187500000000000,  0.687500000000000 ]
    mass: 10.811000
    reduced_to: 1
  - symbol: B  # 34
    coordinates: [  0.437500000000000,  0.187500000000000,  0.687500000000000 ]
    mass: 10.811000
    reduced_to: 1
  - symbol: B  # 35
    coordinates: [  0.687500000000000,  0.187500000000000,  0.687500000000000 ]
    mass: 10.811000
    reduced_to: 1
  - symbol: B  # 36
    coordinates: [  0.937500000000000,  0.187500000000000,  0.687500000000000 ]
    mass: 10.811000
    reduced_to: 1
  - symbol: B  # 37
    coordinates: [  0.187500000000000,  0.437500000000000,  0.687500000000000 ]
    mass: 10.811000
    reduced_to: 1
  - symbol: B  # 38
    coordinates: [  0.437500000000000,  0.437500000000000,  0.687500000000000 ]
    mass: 10.811000
    reduced_to: 1
  - symbol: B  # 39
    coordinates: [  0.687500000000000,  0.437500000000000,  0.687500000000000 ]
    mass: 10.811000
    reduced_to: 1
  - symbol: B  # 40
    coordinates: [  0.937500000000000,  0.437500000000000,  0.687500000000000 ]
    mass: 10.811000
    reduced_to: 1
  - symbol: B  # 41
    coordinates: [  0.187500000000000,  0.687500000000000,  0.687500000000000 ]
    mass: 10.811000
    reduced_to: 1
  - symbol: B  # 42
    coordinates: [  0.437500000000000,  0.687500000000000,  0.687500000000000 ]
    mass: 10.811000
    reduced_to: 1
  - symbol: B  # 43
    coordinates: [  0.687500000000000,  0.687500000000000,  0.687500000000000 ]
    mass: 10.811000
    reduced_to: 1
  - symbol: B  # 44
    coordinates: [  0.937500000000000,  0.687500000000000,  0.687500000000000 ]
    mass: 10.811000
    reduced_to: 1
  - symbol: B  # 45
    coordinates: [  0.187500000000000,  0.937500000000000,  0.687500000000000 ]
    mass: 10.811000
    reduced_to: 1
  - symbol: B  # 46
    coordinates: [  0.437500000000000,  0.937500000000000,  0.687500000000000 ]
    mass: 10.811000
    reduced_to: 1
  - symbol: B  # 47
    coordinates: [  0.687500000000000,  0.937500000000000,  0.687500000000000 ]
    mass: 10.811000
    reduced_to: 1
  - symbol: B  # 48
    coordinates: [  0.937500000000000,  0.937500000000000,  0.687500000000000 ]
    mass: 10.811000
    reduced_to: 1
  - symbol: B  # 49
    coordinates: [  0.187500000000000,  0.187500000000000,  0.937500000000000 ]
    mass: 10.811000
    reduced_to: 1
  - symbol: B  # 50
    coordinates: [  0.437500000000000,  0.187500000000000,  0.937500000000000 ]
    mass: 10.811000
    reduced_to: 1
  - symbol: B  # 51
    coordinates: [  0.687500000000000,  0.187500000000000,  0.937500000000000 ]
    mass: 10.811000
    reduced_to: 1
  - symbol: B  # 52
    coordinates: [  0.937500000000000,  0.187500000000000,  0.937500000000000 ]
    mass: 10.811000
    reduced_to: 1
  - symbol: B  # 53
    coordinates: [  0.187500000000000,  0.437500000000000,  0.937500000000000 ]
    mass: 10.811000
    reduced_to: 1
  - symbol: B  # 54
    coordinates: [  0.437500000000000,  0.437500000000000,  0.937500000000000 ]
    mass: 10.811000
    reduced_to: 1
  - symbol: B  # 55
    coordinates: [  0.687500000000000,  0.437500000000000,  0.937500000000000 ]
    mass: 10.811000
    reduced_to: 1
  - symbol: B  # 56
    coordinates: [  0.937500000000000,  0.437500000000000,  0.937500000000000 ]
    mass: 10.811000
    reduced_to: 1
  - symbol: B  # 57
    coordinates: [  0.187500000000000,  0.687500000000000,  0.937500000000000 ]
    mass: 10.811000
    reduced_to: 1
  - symbol: B  # 58
    coordinates: [  0.437500000000000,  0.687500000000000,  0.937500000000000 ]
    mass: 10.811000
    reduced_to: 1
  - symbol: B  # 59
    coordinates: [  0.687500000000000,  0.687500000000000,  0.937500000000000 ]
    mass: 10.811000
    reduced_to: 1
  - symbol: B  # 60
    coordinates: [  0.937500000000000,  0.687500000000000,  0.937500000000000 ]
    mass: 10.811000
    reduced_to: 1
  - symbol: B  # 61
    coordinates: [  0.187500000000000,  0.937500000000000,  0.937500000000000 ]
    mass: 10.811000
    reduced_to: 1
  - symbol: B  # 62
    coordinates: [  0.437500000000000,  0.937500000000000,  0.937500000000000 ]
    mass: 10.811000
    reduced_to: 1
  - symbol: B  # 63
    coordinates: [  0.687500000000000,  0.937500000000000,  0.937500000000000 ]
    mass: 10.811000
    reduced_to: 1
  - symbol: B  # 64
    coordinates: [  0.937500000000000,  0.937500000000000,  0.937500000000000 ]
    mass: 10.811000
    reduced_to: 1
  - symbol: As # 65
    coordinates: [  0.000000000000000,  0.000000000000000,  0.000000000000000 ]
    mass: 74.921600
    reduced_to: 65
  - symbol: As # 66
    coordinates: [  0.250000000000000,  0.000000000000000,  0.000000000000000 ]
    mass: 74.921600
    reduced_to: 65
  - symbol: As # 67
    coordinates: [  0.500000000000000,  0.000000000000000,  0.000000000000000 ]
    mass: 74.921600
    reduced_to: 65
  - symbol: As # 68
    coordinates: [  0.750000000000000,  0.000000000000000,  0.000000000000000 ]
    mass: 74.921600
    reduced_to: 65
  - symbol: As # 69
    coordinates: [  0.000000000000000,  0.250000000000000,  0.000000000000000 ]
    mass: 74.921600
    reduced_to: 65
  - symbol: As # 70
    coordinates: [  0.250000000000000,  0.250000000000000,  0.000000000000000 ]
    mass: 74.921600
    reduced_to: 65
  - symbol: As # 71
    coordinates: [  0.500000000000000,  0.250000000000000,  0.000000000000000 ]
    mass: 74.921600
    reduced_to: 65
  - symbol: As # 72
    coordinates: [  0.750000000000000,  0.250000000000000,  0.000000000000000 ]
    mass: 74.921600
    reduced_to: 65
  - symbol: As # 73
    coordinates: [  0.000000000000000,  0.500000000000000,  0.000000000000000 ]
    mass: 74.921600
    reduced_to: 65
  - symbol: As # 74
    coordinates: [  0.250000000000000,  0.500000000000000,  0.000000000000000 ]
    mass: 74.921600
    reduced_to: 65
  - symbol: As # 75
    coordinates: [  0.500000000000000,  0.500000000000000,  0.000000000000000 ]
    mass: 74.921600
    reduced_to: 65
  - symbol: As # 76
    coordinates: [  0.750000000000000,  0.500000000000000,  0.000000000000000 ]
    mass: 74.921600
    reduced_to: 65
  - symbol: As # 77
    coordinates: [  0.000000000000000,  0.750000000000000,  0.000000000000000 ]
    mass: 74.921600
    reduced_to: 65
  - symbol: As # 78
    coordinates: [  0.250000000000000,  0.750000000000000,  0.000000000000000 ]
    mass: 74.921600
    reduced_to: 65
  - symbol: As # 79
    coordinates: [  0.500000000000000,  0.750000000000000,  0.000000000000000 ]
    mass: 74.921600
    reduced_to: 65
  - symbol: As # 80
    coordinates: [  0.750000000000000,  0.750000000000000,  0.000000000000000 ]
    mass: 74.921600
    reduced_to: 65
  - symbol: As # 81
    coordinates: [  0.000000000000000,  0.000000000000000,  0.250000000000000 ]
    mass: 74.921600
    reduced_to: 65
  - symbol: As # 82
    coordinates: [  0.250000000000000,  0.000000000000000,  0.250000000000000 ]
    mass: 74.921600
    reduced_to: 65
  - symbol: As # 83
    coordinates: [  0.500000000000000,  0.000000000000000,  0.250000000000000 ]
    mass: 74.921600
    reduced_to: 65
  - symbol: As # 84
    coordinates: [  0.750000000000000,  0.000000000000000,  0.250000000000000 ]
    mass: 74.921600
    reduced_to: 65
  - symbol: As # 85
    coordinates: [  0.000000000000000,  0.250000000000000,  0.250000000000000 ]
    mass: 74.921600
    reduced_to: 65
  - symbol: As # 86
    coordinates: [  0.250000000000000,  0.250000000000000,  0.250000000000000 ]
    mass: 74.921600
    reduced_to: 65
  - symbol: As # 87
    coordinates: [  0.500000000000000,  0.250000000000000,  0.250000000000000 ]
    mass: 74.921600
    reduced_to: 65
  - symbol: As # 88
    coordinates: [  0.750000000000000,  0.250000000000000,  0.250000000000000 ]
    mass: 74.921600
    reduced_to: 65
  - symbol: As # 89
    coordinates: [  0.000000000000000,  0.500000000000000,  0.250000000000000 ]
    mass: 74.921600
    reduced_to: 65
  - symbol: As # 90
    coordinates: [  0.250000000000000,  0.500000000000000,  0.250000000000000 ]
    mass: 74.921600
    reduced_to: 65
  - symbol: As # 91
    coordinates: [  0.500000000000000,  0.500000000000000,  0.250000000000000 ]
    mass: 74.921600
    reduced_to: 65
  - symbol: As # 92
    coordinates: [  0.750000000000000,  0.500000000000000,  0.250000000000000 ]
    mass: 74.921600
    reduced_to: 65
  - symbol: As # 93
    coordinates: [  0.000000000000000,  0.750000000000000,  0.250000000000000 ]
    mass: 74.921600
    reduced_to: 65
  - symbol: As # 94
    coordinates: [  0.250000000000000,  0.750000000000000,  0.250000000000000 ]
    mass: 74.921600
    reduced_to: 65
  - symbol: As # 95
    coordinates: [  0.500000000000000,  0.750000000000000,  0.250000000000000 ]
    mass: 74.921600
    reduced_to: 65
  - symbol: As # 96
    coordinates: [  0.750000000000000,  0.750000000000000,  0.250000000000000 ]
    mass: 74.921600
    reduced_to: 65
  - symbol: As # 97
    coordinates: [  0.000000000000000,  0.000000000000000,  0.500000000000000 ]
    mass: 74.921600
    reduced_to: 65
  - symbol: As # 98
    coordinates: [  0.250000000000000,  0.000000000000000,  0.500000000000000 ]
    mass: 74.921600
    reduced_to: 65
  - symbol: As # 99
    coordinates: [  0.500000000000000,  0.000000000000000,  0.500000000000000 ]
    mass: 74.921600
    reduced_to: 65
  - symbol: As # 100
    coordinates: [  0.750000000000000,  0.000000000000000,  0.500000000000000 ]
    mass: 74.921600
    reduced_to: 65
  - symbol: As # 101
    coordinates: [  0.000000000000000,  0.250000000000000,  0.500000000000000 ]
    mass: 74.921600
    reduced_to: 65
  - symbol: As # 102
    coordinates: [  0.250000000000000,  0.250000000000000,  0.500000000000000 ]
    mass: 74.921600
    reduced_to: 65
  - symbol: As # 103
    coordinates: [  0.500000000000000,  0.250000000000000,  0.500000000000000 ]
    mass: 74.921600
    reduced_to: 65
  - symbol: As # 104
    coordinates: [  0.750000000000000,  0.250000000000000,  0.500000000000000 ]
    mass: 74.921600
    reduced_to: 65
  - symbol: As # 105
    coordinates: [  0.000000000000000,  0.500000000000000,  0.500000000000000 ]
    mass: 74.921600
    reduced_to: 65
  - symbol: As # 106
    coordinates: [  0.250000000000000,  0.500000000000000,  0.500000000000000 ]
    mass: 74.921600
    reduced_to: 65
  - symbol: As # 107
    coordinates: [  0.500000000000000,  0.500000000000000,  0.500000000000000 ]
    mass: 74.921600
    reduced_to: 65
  - symbol: As # 108
    coordinates: [  0.750000000000000,  0.500000000000000,  0.500000000000000 ]
    mass: 74.921600
    reduced_to: 65
  - symbol: As # 109
    coordinates: [  0.000000000000000,  0.750000000000000,  0.500000000000000 ]
    mass: 74.921600
    reduced_to: 65
  - symbol: As # 110
    coordinates: [  0.250000000000000,  0.750000000000000,  0.500000000000000 ]
    mass: 74.921600
    reduced_to: 65
  - symbol: As # 111
    coordinates: [  0.500000000000000,  0.750000000000000,  0.500000000000000 ]
    mass: 74.921600
    reduced_to: 65
  - symbol: As # 112
    coordinates: [  0.750000000000000,  0.750000000000000,  0.500000000000000 ]
    mass: 74.921600
    reduced_to: 65
  - symbol: As # 113
    coordinates: [  0.000000000000000,  0.000000000000000,  0.750000000000000 ]
    mass: 74.921600
    reduced_to: 65
  - symbol: As # 114
    coordinates: [  0.250000000000000,  0.000000000000000,  0.750000000000000 ]
    mass: 74.921600
    reduced_to: 65
  - symbol: As # 115
    coordinates: [  0.500000000000000,  0.000000000000000,  0.750000000000000 ]
    mass: 74.921600
    reduced_to: 65
  - symbol: As # 116
    coordinates: [  0.750000000000000,  0.000000000000000,  0.750000000000000 ]
    mass: 74.921600
    reduced_to: 65
  - symbol: As # 117
    coordinates: [  0.000000000000000,  0.250000000000000,  0.750000000000000 ]
    mass: 74.921600
    reduced_to: 65
  - symbol: As # 118
    coordinates: [  0.250000000000000,  0.250000000000000,  0.750000000000000 ]
    mass: 74.921600
    reduced_to: 65
  - symbol: As # 119
    coordinates: [  0.500000000000000,  0.250000000000000,  0.750000000000000 ]
    mass: 74.921600
    reduced_to: 65
  - symbol: As # 120
    coordinates: [  0.750000000000000,  0.250000000000000,  0.750000000000000 ]
    mass: 74.921600
    reduced_to: 65
  - symbol: As # 121
    coordinates: [  0.000000000000000,  0.500000000000000,  0.750000000000000 ]
    mass: 74.921600
    reduced_to: 65
  - symbol: As # 122
    coordinates: [  0.250000000000000,  0.500000000000000,  0.750000000000000 ]
    mass: 74.921600
    reduced_to: 65
  - symbol: As # 123
    coordinates: [  0.500000000000000,  0.500000000000000,  0.750000000000000 ]
    mass: 74.921600
    reduced_to: 65
  - symbol: As # 124
    coordinates: [  0.750000000000000,  0.500000000000000,  0.750000000000000 ]
    mass: 74.921600
    reduced_to: 65
  - symbol: As # 125
    coordinates: [  0.000000000000000,  0.750000000000000,  0.750000000000000 ]
    mass: 74.921600
    reduced_to: 65
  - symbol: As # 126
    coordinates: [  0.250000000000000,  0.750000000000000,  0.750000000000000 ]
    mass: 74.921600
    reduced_to: 65
  - symbol: As # 127
    coordinates: [  0.500000000000000,  0.750000000000000,  0.750000000000000 ]
    mass: 74.921600
    reduced_to: 65
  - symbol: As # 128
    coordinates: [  0.750000000000000,  0.750000000000000,  0.750000000000000 ]
    mass: 74.921600
    reduced_to: 65
